 &FCI NORB= 44,NELEC=26,MS2= 0,
  ORBSYM=1,1,1,1,1,1,2,2,2,2,2,3,3,3,3,3,3,4,4,4,4,4,5,5,5,5,5,5,6,6,
 6,6,6,7,7,7,7,7,7,8,8,8,8,8,
  ISYM=1
 &END
   0.584992673297      1  1  1  1
  -0.815578348885E-01  2  1  1  1
   0.450173539429E-01  2  1  2  1
   0.333029460966      2  2  1  1
   0.597644414191E-01  2  2  2  1
   0.532281416382      2  2  2  2
  -0.631781909874E-02  3  1  1  1
  -0.226075401692E-02  3  1  2  1
  -0.131667327536E-01  3  1  2  2
   0.735661233506E-02  3  1  3  1
  -0.230145457686E-01  3  2  1  1
  -0.829309418946E-02  3  2  2  1
  -0.511848707853E-01  3  2  2  2
   0.264491957312E-01  3  2  3  1
   0.981392434957E-01  3  2  3  2
   0.304276440206      3  3  1  1
   0.788666465379E-01  3  3  2  1
   0.566019976315      3  3  2  2
  -0.185214182828E-01  3  3  3  1
  -0.717614228934E-01  3  3  3  2
   0.639931822230      3  3  3  3
  -0.483371860349E-01  4  1  1  1
   0.133835306131E-01  4  1  2  1
  -0.136914372459E-01  4  1  2  2
  -0.536685485068E-03  4  1  3  1
  -0.877601987670E-03  4  1  3  2
  -0.120033905236E-01  4  1  3  3
   0.176887640619E-01  4  1  4  1
   0.226546663678E-01  4  2  1  1
  -0.260208650465E-01  4  2  2  1
  -0.653128477135E-01  4  2  2  2
   0.129494116154E-03  4  2  3  1
   0.133036817092E-02  4  2  3  2
  -0.828581905662E-01  4  2  3  3
   0.307387122247E-02  4  2  4  1
   0.329528234811E-01  4  2  4  2
  -0.433193035547E-02  4  3  1  1
  -0.389338465814E-02  4  3  2  1
  -0.173489028238E-01  4  3  2  2
  -0.764616471729E-02  4  3  3  1
  -0.289913044481E-01  4  3  3  2
  -0.154819377229E-01  4  3  3  3
   0.229933497265E-02  4  3  4  1
   0.922019174176E-02  4  3  4  2
   0.181356615583E-01  4  3  4  3
   0.355070089768      4  4  1  1
   0.130884723268E-01  4  4  2  1
   0.392996265987      4  4  2  2
  -0.500224361427E-02  4  4  3  1
  -0.190792762880E-01  4  4  3  2
   0.397397857803      4  4  3  3
  -0.299028582881E-02  4  4  4  1
  -0.153850078358E-01  4  4  4  2
  -0.128385908122E-01  4  4  4  3
   0.365687401548      4  4  4  4
   0.982323708774E-02  5  1  1  1
  -0.309377469804E-02  5  1  2  1
   0.641559512095E-03  5  1  2  2
   0.703159244391E-04  5  1  3  1
  -0.678379265934E-04  5  1  3  2
   0.153565063566E-03  5  1  3  3
  -0.252379593309E-02  5  1  4  1
  -0.330388450409E-04  5  1  4  2
  -0.457775548200E-04  5  1  4  3
   0.553040605495E-03  5  1  4  4
   0.146296965443E-02  5  1  5  1
  -0.328250940987E-02  5  2  1  1
   0.270035805432E-02  5  2  2  1
   0.615971405315E-02  5  2  2  2
  -0.396338997752E-03  5  2  3  1
  -0.148271908226E-02  5  2  3  2
   0.858001499680E-02  5  2  3  3
  -0.537282371310E-03  5  2  4  1
  -0.396903902256E-02  5  2  4  2
  -0.545826661285E-03  5  2  4  3
   0.283557237235E-03  5  2  4  4
  -0.272388504092E-03  5  2  5  1
   0.679528778535E-03  5  2  5  2
  -0.269530101584E-04  5  3  1  1
  -0.136985203132E-02  5  3  2  1
  -0.454379696407E-02  5  3  2  2
   0.110480591829E-02  5  3  3  1
   0.433235738845E-02  5  3  3  2
  -0.641297391734E-02  5  3  3  3
  -0.124680574794E-03  5  3  4  1
   0.519846803048E-03  5  3  4  2
  -0.210804577432E-02  5  3  4  3
  -0.169737135703E-02  5  3  4  4
   0.674775792757E-04  5  3  5  1
  -0.953752148055E-04  5  3  5  2
   0.470059842342E-03  5  3  5  3
  -0.106721360925E-01  5  4  1  1
  -0.547124854927E-02  5  4  2  1
  -0.279684259370E-01  5  4  2  2
   0.677914833921E-03  5  4  3  1
   0.284069358441E-02  5  4  3  2
  -0.300148258160E-01  5  4  3  3
  -0.238559242739E-03  5  4  4  1
   0.307831303961E-02  5  4  4  2
   0.166408336896E-02  5  4  4  3
  -0.201397228606E-01  5  4  4  4
   0.799924977552E-03  5  4  5  1
  -0.185904198833E-03  5  4  5  2
   0.552734416385E-03  5  4  5  3
   0.460970656103E-02  5  4  5  4
   0.207988247319      5  5  1  1
  -0.119649700304E-01  5  5  2  1
   0.169886891651      5  5  2  2
  -0.127587451953E-02  5  5  3  1
  -0.378898373688E-02  5  5  3  2
   0.165080978769      5  5  3  3
  -0.265474275177E-02  5  5  4  1
   0.321637033073E-02  5  5  4  2
   0.236116865247E-03  5  5  4  3
   0.179009382443      5  5  4  4
   0.195991614169E-02  5  5  5  1
  -0.240559113175E-03  5  5  5  2
   0.137221846339E-02  5  5  5  3
   0.693148497901E-02  5  5  5  4
   0.204261478590      5  5  5  5
  -0.102149021167E-01  6  1  1  1
   0.375102258308E-02  6  1  2  1
   0.840142270808E-03  6  1  2  2
   0.220029105818E-03  6  1  3  1
   0.880287750012E-03  6  1  3  2
   0.195288671736E-02  6  1  3  3
   0.227792672874E-02  6  1  4  1
  -0.159846196149E-02  6  1  4  2
  -0.541728074393E-03  6  1  4  3
  -0.540683698755E-03  6  1  4  4
  -0.135157891309E-03  6  1  5  1
   0.861337647078E-04  6  1  5  2
   0.193950576640E-04  6  1  5  3
   0.924876865426E-05  6  1  5  4
  -0.397968456242E-03  6  1  5  5
   0.556551644424E-03  6  1  6  1
   0.824221636135E-02  6  2  1  1
   0.446486213208E-03  6  2  2  1
   0.987251233761E-02  6  2  2  2
   0.709381410143E-03  6  2  3  1
   0.258738391092E-02  6  2  3  2
   0.964525410348E-02  6  2  3  3
  -0.111911333668E-02  6  2  4  1
  -0.199827025707E-02  6  2  4  2
  -0.224956381694E-02  6  2  4  3
   0.739364005227E-02  6  2  4  4
   0.112425658084E-03  6  2  5  1
   0.173682353526E-03  6  2  5  2
   0.143597070463E-03  6  2  5  3
  -0.718416382827E-03  6  2  5  4
   0.119411289288E-02  6  2  5  5
  -0.420385990926E-04  6  2  6  1
   0.714819938347E-03  6  2  6  2
   0.458326458756E-02  6  3  1  1
   0.293180602476E-02  6  3  2  1
   0.144198447658E-01  6  3  2  2
  -0.479604757529E-04  6  3  3  1
  -0.304392159213E-03  6  3  3  2
   0.168834163553E-01  6  3  3  3
  -0.750703552549E-03  6  3  4  1
  -0.400051620263E-02  6  3  4  2
  -0.188655320450E-02  6  3  4  3
   0.807674980476E-02  6  3  4  4
   0.842257123098E-04  6  3  5  1
   0.426889803651E-03  6  3  5  2
  -0.652921728360E-05  6  3  5  3
  -0.836375589747E-03  6  3  5  4
   0.148126061751E-02  6  3  5  5
   0.145742311355E-03  6  3  6  1
   0.573487274712E-03  6  3  6  2
   0.885739661711E-03  6  3  6  3
   0.128641619362E-01  6  4  1  1
  -0.413386386706E-02  6  4  2  1
  -0.108769253321E-02  6  4  2  2
  -0.855693489396E-03  6  4  3  1
  -0.300303552727E-02  6  4  3  2
  -0.303065960109E-02  6  4  3  3
  -0.129359252574E-03  6  4  4  1
   0.319779569427E-02  6  4  4  2
   0.140668391694E-02  6  4  4  3
   0.431851920111E-02  6  4  4  4
   0.419155878027E-03  6  4  5  1
  -0.356919194296E-03  6  4  5  2
   0.886614808294E-04  6  4  5  3
   0.739827610495E-03  6  4  5  4
   0.551079634909E-02  6  4  5  5
  -0.232809948039E-03  6  4  6  1
   0.109926219455E-03  6  4  6  2
  -0.617009050959E-04  6  4  6  3
   0.127621557360E-02  6  4  6  4
   0.170424585517E-01  6  5  1  1
  -0.303343205765E-02  6  5  2  1
   0.736756837984E-02  6  5  2  2
  -0.610547247748E-04  6  5  3  1
  -0.891144884678E-05  6  5  3  2
   0.637462801754E-02  6  5  3  3
  -0.785242166373E-03  6  5  4  1
   0.551964330430E-03  6  5  4  2
  -0.215350633690E-04  6  5  4  3
   0.945420758437E-02  6  5  4  4
   0.868298653824E-03  6  5  5  1
  -0.184993928785E-03  6  5  5  2
   0.356702266331E-03  6  5  5  3
   0.222959571592E-02  6  5  5  4
   0.176552002322E-01  6  5  5  5
  -0.950001301368E-04  6  5  6  1
   0.260454688668E-03  6  5  6  2
   0.270026579256E-03  6  5  6  3
   0.131387283242E-02  6  5  6  4
   0.478892884143E-02  6  5  6  5
   0.144957843548      6  6  1  1
   0.176679112060E-02  6  6  2  1
   0.150945392109      6  6  2  2
  -0.215390601443E-03  6  6  3  1
  -0.790816429406E-03  6  6  3  2
   0.151321845222      6  6  3  3
  -0.405906602829E-03  6  6  4  1
  -0.105660048969E-02  6  6  4  2
  -0.582701557326E-03  6  6  4  3
   0.147079684555      6  6  4  4
  -0.303092164019E-03  6  6  5  1
   0.203744550004E-04  6  6  5  2
  -0.393337184660E-03  6  6  5  3
  -0.217408162084E-02  6  6  5  4
   0.122493936148      6  6  5  5
  -0.719414514065E-04  6  6  6  1
   0.786262792915E-05  6  6  6  2
   0.197924944103E-03  6  6  6  3
  -0.528158790089E-03  6  6  6  4
   0.126157820346E-02  6  6  6  5
   0.123551306095      6  6  6  6
   0.325865878361      7  7  1  1
   0.527856220424E-01  7  7  2  1
   0.504544570218      7  7  2  2
  -0.123442432081E-01  7  7  3  1
  -0.478344371037E-01  7  7  3  2
   0.522253769167      7  7  3  3
  -0.144419969943E-01  7  7  4  1
  -0.606757461054E-01  7  7  4  2
  -0.148803945438E-01  7  7  4  3
   0.375336901269      7  7  4  4
   0.809825081877E-03  7  7  5  1
   0.581239499717E-02  7  7  5  2
  -0.397119640187E-02  7  7  5  3
  -0.253133212855E-01  7  7  5  4
   0.170419506337      7  7  5  5
   0.292318619350E-03  7  7  6  1
   0.790387762705E-02  7  7  6  2
   0.127257201632E-01  7  7  6  3
  -0.121846378374E-02  7  7  6  4
   0.761008881888E-02  7  7  6  5
   0.151588746057      7  7  6  6
   0.506380118309      7  7  7  7
  -0.117690347829E-01  8  7  1  1
  -0.940488679395E-02  8  7  2  1
  -0.432771545529E-01  8  7  2  2
   0.160946587504E-02  8  7  3  1
   0.632210524437E-02  8  7  3  2
  -0.472091492896E-01  8  7  3  3
   0.213234935065E-02  8  7  4  1
   0.113540481576E-01  8  7  4  2
   0.245746229645E-02  8  7  4  3
  -0.218301380602E-01  8  7  4  4
  -0.415634312999E-03  8  7  5  1
  -0.112887600904E-02  8  7  5  2
   0.565621274490E-03  8  7  5  3
   0.313140639631E-02  8  7  5  4
   0.770701720007E-03  8  7  5  5
  -0.266142879510E-03  8  7  6  1
  -0.125148482238E-02  8  7  6  2
  -0.185234517439E-02  8  7  6  3
   0.474240330351E-03  8  7  6  4
  -0.188182766475E-06  8  7  6  5
  -0.844111905120E-03  8  7  6  6
  -0.427775353165E-01  8  7  7  7
   0.698455075501E-02  8  7  8  7
   0.192662155168      8  8  1  1
  -0.194855239700E-02  8  8  2  1
   0.187601460576      8  8  2  2
  -0.158837501543E-02  8  8  3  1
  -0.531012120985E-02  8  8  3  2
   0.185699695689      8  8  3  3
  -0.195677251762E-02  8  8  4  1
  -0.724982466239E-03  8  8  4  2
  -0.838166118296E-03  8  8  4  3
   0.184852959512      8  8  4  4
  -0.114328199145E-02  8  8  5  1
   0.688869205866E-03  8  8  5  2
  -0.517265484233E-04  8  8  5  3
  -0.209315301386E-02  8  8  5  4
   0.158597416078      8  8  5  5
  -0.440572287594E-03  8  8  6  1
   0.817194407525E-03  8  8  6  2
   0.130264786032E-02  8  8  6  3
   0.128828045258E-02  8  8  6  4
   0.441450754960E-02  8  8  6  5
   0.131812136037      8  8  6  6
   0.188622633086      8  8  7  7
  -0.112407427497E-02  8  8  8  7
   0.161708994576      8  8  8  8
  -0.334855098003E-02  9  7  1  1
  -0.300165853587E-02  9  7  2  1
  -0.135240424835E-01  9  7  2  2
   0.124748702569E-03  9  7  3  1
   0.590161909980E-03  9  7  3  2
  -0.146834198707E-01  9  7  3  3
   0.110308372734E-02  9  7  4  1
   0.387481735184E-02  9  7  4  2
   0.104694252781E-02  9  7  4  3
  -0.599088373204E-02  9  7  4  4
  -0.319746786395E-03  9  7  5  1
  -0.293771366867E-03  9  7  5  2
   0.251363382981E-03  9  7  5  3
   0.130735264602E-02  9  7  5  4
   0.310783255383E-02  9  7  5  5
  -0.590740387467E-04  9  7  6  1
  -0.311223171401E-03  9  7  6  2
  -0.473902185259E-03  9  7  6  3
   0.489081044755E-03  9  7  6  4
   0.610462699080E-03  9  7  6  5
  -0.119607168131E-02  9  7  6  6
  -0.139509873618E-01  9  7  7  7
   0.233017825909E-02  9  7  8  7
   0.278533925400E-03  9  7  8  8
   0.131621218835E-02  9  7  9  7
   0.528395102001E-01  9  8  1  1
  -0.672360431896E-02  9  8  2  1
   0.317912691054E-01  9  8  2  2
  -0.895237190834E-03  9  8  3  1
  -0.266049953663E-02  9  8  3  2
   0.288859233487E-01  9  8  3  3
  -0.193376926727E-02  9  8  4  1
   0.197672951044E-02  9  8  4  2
  -0.113008169294E-03  9  8  4  3
   0.367063996772E-01  9  8  4  4
  -0.309302560545E-03  9  8  5  1
   0.330945809224E-03  9  8  5  2
   0.457563713848E-03  9  8  5  3
   0.118013969163E-02  9  8  5  4
   0.365491629862E-01  9  8  5  5
  -0.651424830746E-03  9  8  6  1
   0.100207847617E-02  9  8  6  2
   0.903577289439E-03  9  8  6  3
   0.235626877526E-02  9  8  6  4
   0.624651716471E-02  9  8  6  5
   0.362253504265E-02  9  8  6  6
   0.312965409026E-01  9  8  7  7
  -0.210270324644E-03  9  8  8  7
   0.214591875131E-01  9  8  8  8
   0.193035064968E-02  9  8  9  7
   0.217948476065E-01  9  8  9  8
   0.195566709312      9  9  1  1
  -0.650794073800E-02  9  9  2  1
   0.175689125695      9  9  2  2
  -0.139786494504E-02  9  9  3  1
  -0.431912397775E-02  9  9  3  2
   0.172219707497      9  9  3  3
  -0.250614324673E-02  9  9  4  1
   0.203449190678E-02  9  9  4  2
  -0.422694453848E-03  9  9  4  3
   0.178411233432      9  9  4  4
  -0.899864444629E-03  9  9  5  1
   0.415095822169E-03  9  9  5  2
   0.205713209946E-03  9  9  5  3
  -0.718380822144E-03  9  9  5  4
   0.158839831664      9  9  5  5
  -0.814401095293E-03  9  9  6  1
   0.878679191686E-03  9  9  6  2
   0.102313541024E-02  9  9  6  3
   0.216215666440E-02  9  9  6  4
   0.630357827519E-02  9  9  6  5
   0.129703155926      9  9  6  6
   0.176632867588      9  9  7  7
  -0.356388052403E-04  9  9  8  7
   0.156787789348      9  9  8  8
   0.879908184858E-03  9  9  9  7
   0.213128430972E-01  9  9  9  8
   0.156249680115      9  9  9  9
   0.602433849664E-03 10  7  1  1
   0.170464645662E-01 10  7  2  1
   0.568824164245E-01 10  7  2  2
  -0.218689565326E-02 10  7  3  1
  -0.860267742692E-02 10  7  3  2
   0.643747354273E-01 10  7  3  3
  -0.147637775888E-02 10  7  4  1
  -0.191474995940E-01 10  7  4  2
  -0.376416521405E-02 10  7  4  3
   0.239242474224E-01 10  7  4  4
   0.128038347107E-03 10  7  5  1
   0.216965722522E-02 10  7  5  2
  -0.691680374794E-03 10  7  5  3
  -0.353554205742E-02 10  7  5  4
   0.567626062051E-03 10  7  5  5
   0.868199500196E-03 10  7  6  1
   0.188454487229E-02 10  7  6  2
   0.278106004715E-02 10  7  6  3
  -0.815120210318E-03 10  7  6  4
   0.192794806209E-03 10  7  6  5
  -0.477834727176E-03 10  7  6  6
   0.546300136624E-01 10  7  7  7
  -0.101085907583E-01 10  7  8  7
   0.783657063780E-03 10  7  8  8
  -0.276213712633E-02 10  7  9  7
   0.102041406896E-02 10  7  9  8
  -0.790246483799E-03 10  7  9  9
   0.169136767358E-01 10  7 10  7
  -0.364503102634E-01 10  8  1  1
  -0.604161472217E-02 10  8  2  1
  -0.567977242313E-01 10  8  2  2
   0.130770604032E-02 10  8  3  1
   0.495276697970E-02 10  8  3  2
  -0.580781968540E-01 10  8  3  3
   0.828783531890E-03 10  8  4  1
   0.440712872576E-02 10  8  4  2
   0.148011406534E-02 10  8  4  3
  -0.454324405723E-01 10  8  4  4
   0.749469815410E-03 10  8  5  1
  -0.421531441061E-03 10  8  5  2
   0.794180823421E-03 10  8  5  3
   0.509903784957E-02 10  8  5  4
   0.531923531890E-03 10  8  5  5
   0.754572140037E-04 10  8  6  1
  -0.488007150770E-03 10  8  6  2
  -0.108161493952E-02 10  8  6  3
   0.113172010656E-02 10  8  6  4
   0.965618101120E-03 10  8  6  5
  -0.136346275267E-01 10  8  6  6
  -0.575727529670E-01 10  8  7  7
   0.378698999675E-02 10  8  8  7
  -0.155106559491E-01 10  8  8  8
   0.218438955013E-02 10  8  9  7
  -0.129795448130E-02 10  8  9  8
  -0.134950869702E-01 10  8  9  9
  -0.225943488874E-02 10  8 10  7
   0.200619468719E-01 10  8 10  8
  -0.788549911736E-02 10  9  1  1
  -0.253181156835E-03 10  9  2  1
  -0.887019846374E-02 10  9  2  2
   0.425000226915E-03 10  9  3  1
   0.151857490895E-02 10  9  3  2
  -0.866344450696E-02 10  9  3  3
   0.434620188771E-03 10  9  4  1
   0.355615903834E-03 10  9  4  2
   0.450101434609E-03 10  9  4  3
  -0.807588681172E-02 10  9  4  4
   0.375230269423E-03 10  9  5  1
  -0.149803371158E-03 10  9  5  2
   0.228706687427E-03 10  9  5  3
   0.182326782944E-02 10  9  5  4
   0.897445558552E-02 10  9  5  5
   0.185602008972E-03 10  9  6  1
  -0.468491565166E-03 10  9  6  2
  -0.385830726920E-03 10  9  6  3
   0.328359513476E-04 10  9  6  4
   0.153344606194E-02 10  9  6  5
   0.176942679650E-02 10  9  6  6
  -0.790817685676E-02 10  9  7  7
   0.142919599647E-02 10  9  8  7
   0.213576029050E-02 10  9  8  8
   0.224601713480E-03 10  9  9  7
   0.388871336510E-03 10  9  9  8
   0.252591774190E-02 10  9  9  9
  -0.135058278236E-02 10  9 10  7
   0.412364554749E-02 10  9 10  8
   0.510877773123E-02 10  9 10  9
   0.212766959837     10 10  1  1
   0.667484634858E-02 10 10  2  1
   0.236300547501     10 10  2  2
  -0.299979596203E-02 10 10  3  1
  -0.110601464015E-01 10 10  3  2
   0.236595754369     10 10  3  3
  -0.248648920788E-02 10 10  4  1
  -0.690409855351E-02 10 10  4  2
  -0.256282400891E-02 10 10  4  3
   0.218298138602     10 10  4  4
  -0.795435812443E-03 10 10  5  1
   0.806340053779E-03 10 10  5  2
  -0.628598818463E-03 10 10  5  3
  -0.582507597719E-02 10 10  5  4
   0.165351294854     10 10  5  5
  -0.180041620436E-03 10 10  6  1
   0.114632347425E-02 10 10  6  2
   0.269005285553E-02 10 10  6  3
   0.448403477827E-03 10 10  6  4
   0.583470167762E-02 10 10  6  5
   0.136460949954     10 10  6  6
   0.239210965843     10 10  7  7
  -0.558680497628E-02 10 10  8  7
   0.168428688200     10 10  8  8
  -0.197048253880E-02 10 10  9  7
   0.234433286854E-01 10 10  9  8
   0.160961760410     10 10  9  9
   0.431383231705E-02 10 10 10  7
  -0.250222270057E-01 10 10 10  8
   0.288655753023E-02 10 10 10  9
   0.192733112218     10 10 10 10
   0.222559670445E-01 11  7  1  1
   0.595855071285E-02 11  7  2  1
   0.431208015637E-01 11  7  2  2
  -0.510288028337E-02 11  7  3  1
  -0.191810331528E-01 11  7  3  2
   0.467308590938E-01 11  7  3  3
  -0.302119667680E-02 11  7  4  1
  -0.944448817276E-02 11  7  4  2
   0.352898916975E-03 11  7  4  3
   0.235024154370E-01 11  7  4  4
   0.367319771801E-03 11  7  5  1
   0.138158663863E-02 11  7  5  2
  -0.550122255309E-03 11  7  5  3
  -0.247723016171E-02 11  7  5  4
   0.416589587553E-02 11  7  5  5
  -0.667037412575E-04 11  7  6  1
   0.123965156993E-02 11  7  6  2
   0.205156786225E-02 11  7  6  3
   0.732760079353E-03 11  7  6  4
   0.579890188818E-03 11  7  6  5
   0.100431319118E-03 11  7  6  6
   0.417810201549E-01 11  7  7  7
  -0.662337812906E-02 11  7  8  7
   0.419162199839E-02 11  7  8  8
  -0.122389471139E-02 11  7  9  7
   0.358119578300E-02 11  7  9  8
   0.337408807214E-02 11  7  9  9
   0.103887361007E-01 11  7 10  7
  -0.326651687703E-02 11  7 10  8
  -0.213540381509E-02 11  7 10  9
   0.692372576457E-02 11  7 10 10
   0.120579161635E-01 11  7 11  7
   0.415444733861E-02 11  8  1  1
  -0.521563852475E-02 11  8  2  1
  -0.124955549128E-01 11  8  2  2
   0.164437029486E-03 11  8  3  1
   0.102878146745E-02 11  8  3  2
  -0.150220848144E-01 11  8  3  3
  -0.443592215249E-03 11  8  4  1
   0.388224861140E-02 11  8  4  2
   0.122568697501E-03 11  8  4  3
  -0.459736589701E-02 11  8  4  4
  -0.533232676031E-03 11  8  5  1
  -0.648537725847E-04 11  8  5  2
   0.279776059261E-03 11  8  5  3
   0.375415805256E-03 11  8  5  4
  -0.481430272900E-02 11  8  5  5
  -0.322870033516E-03 11  8  6  1
   0.349046126644E-04 11  8  6  2
  -0.209952791530E-03 11  8  6  3
   0.564977554062E-03 11  8  6  4
  -0.108457263298E-02 11  8  6  5
  -0.220565330371E-02 11  8  6  6
  -0.126065986978E-01 11  8  7  7
   0.186772916299E-02 11  8  8  7
  -0.195735059418E-03 11  8  8  8
   0.973154157476E-03 11  8  9  7
   0.909052143073E-03 11  8  9  8
   0.163878262130E-03 11  8  9  9
  -0.286170431657E-02 11  8 10  7
  -0.159987849512E-02 11  8 10  8
  -0.316127775978E-02 11  8 10  9
  -0.434653575044E-02 11  8 10 10
   0.985195795385E-04 11  8 11  7
   0.500303800680E-02 11  8 11  8
   0.312300524894E-01 11  9  1  1
  -0.821489917922E-03 11  9  2  1
   0.289770916492E-01 11  9  2  2
  -0.229170273290E-03 11  9  3  1
  -0.625790755991E-03 11  9  3  2
   0.283379091733E-01 11  9  3  3
  -0.691930278766E-03 11  9  4  1
   0.800358427410E-03 11  9  4  2
  -0.441584117826E-03 11  9  4  3
   0.287284867085E-01 11  9  4  4
  -0.670001706860E-03 11  9  5  1
   0.271030613206E-04 11  9  5  2
  -0.305332342756E-03 11  9  5  3
  -0.222405239081E-02 11  9  5  4
   0.605782770505E-02 11  9  5  5
  -0.405762858779E-03 11  9  6  1
   0.223360254390E-03 11  9  6  2
   0.133322730785E-03 11  9  6  3
  -0.179287271602E-03 11  9  6  4
   0.170801828941E-03 11  9  6  5
   0.988509356375E-02 11  9  6  6
   0.290049066685E-01 11  9  7  7
  -0.651941932540E-03 11  9  8  7
   0.132407415859E-01 11  9  8  8
  -0.537137444677E-03 11  9  9  7
   0.431809967614E-02 11  9  9  8
   0.124263524404E-01 11  9  9  9
  -0.831612436567E-03 11  9 10  7
  -0.102957945743E-01 11  9 10  8
  -0.226407894649E-02 11  9 10  9
   0.167663874199E-01 11  9 10 10
   0.245682890029E-03 11  9 11  7
   0.902809003689E-03 11  9 11  8
   0.781866060433E-02 11  9 11  9
  -0.473890685772E-02 11 10  1  1
   0.113560596271E-01 11 10  2  1
   0.319450634230E-01 11 10  2  2
  -0.562687818410E-03 11 10  3  1
  -0.268400178994E-02 11 10  3  2
   0.366189851345E-01 11 10  3  3
   0.631453907098E-03 11 10  4  1
  -0.762338666432E-02 11 10  4  2
  -0.791572816165E-03 11 10  4  3
   0.142568220586E-01 11 10  4  4
  -0.111549338958E-03 11 10  5  1
   0.359392418498E-03 11 10  5  2
  -0.103974913689E-02 11 10  5  3
  -0.407916748238E-02 11 10  5  4
  -0.147687379822E-01 11 10  5  5
   0.387780479158E-03 11 10  6  1
   0.145748901900E-05 11 10  6  2
   0.562694731792E-03 11 10  6  3
  -0.201372776113E-02 11 10  6  4
  -0.246412617706E-02 11 10  6  5
   0.507211173656E-02 11 10  6  6
   0.326312107936E-01 11 10  7  7
  -0.443674532447E-02 11 10  8  7
  -0.241555942875E-02 11 10  8  8
  -0.292006615943E-02 11 10  9  7
  -0.788451625495E-02 11 10  9  8
  -0.330402677408E-02 11 10  9  9
   0.447920794792E-02 11 10 10  7
  -0.891159985563E-02 11 10 10  8
  -0.115980134588E-02 11 10 10  9
   0.307622597867E-02 11 10 10 10
   0.179143378453E-03 11 10 11  7
  -0.303310001234E-02 11 10 11  8
   0.350659666205E-02 11 10 11  9
   0.132710608892E-01 11 10 11 10
   0.211075076893     11 11  1  1
   0.126824709226E-01 11 11  2  1
   0.253391005221     11 11  2  2
  -0.880941637419E-03 11 11  3  1
  -0.368992624155E-02 11 11  3  2
   0.258969898540     11 11  3  3
  -0.166606007432E-02 11 11  4  1
  -0.943537381630E-02 11 11  4  2
  -0.280869671784E-02 11 11  4  3
   0.226822566397     11 11  4  4
  -0.957967840220E-03 11 11  5  1
   0.462352912216E-03 11 11  5  2
  -0.172161510600E-02 11 11  5  3
  -0.860659777222E-02 11 11  5  4
   0.152323448895     11 11  5  5
  -0.228957731775E-03 11 11  6  1
   0.124242525375E-02 11 11  6  2
   0.209897513658E-02 11 11  6  3
  -0.114205344669E-02 11 11  6  4
   0.507748696722E-02 11 11  6  5
   0.138751351121     11 11  6  6
   0.252851575588     11 11  7  7
  -0.822841859389E-02 11 11  8  7
   0.161317142682     11 11  8  8
  -0.376556277073E-02 11 11  9  7
   0.186756667376E-01 11 11  9  8
   0.155279174222     11 11  9  9
   0.721675960889E-02 11 11 10  7
  -0.289296117714E-01 11 11 10  8
   0.683866718724E-03 11 11 10  9
   0.183545661164     11 11 10 10
   0.188857545278E-02 11 11 11  7
  -0.742598070678E-02 11 11 11  8
   0.211661105392E-01 11 11 11  9
   0.145131057630E-01 11 11 11 10
   0.202559181917     11 11 11 11
   0.299769285479     12 12  1  1
   0.700293913506E-01 12 12  2  1
   0.530163931756     12 12  2  2
  -0.124282461102E-02 12 12  3  1
  -0.692979610340E-02 12 12  3  2
   0.557668224598     12 12  3  3
  -0.103591389912E-01 12 12  4  1
  -0.740521471829E-01 12 12  4  2
  -0.320601511167E-01 12 12  4  3
   0.390418685525     12 12  4  4
  -0.203632171526E-03 12 12  5  1
   0.644581180327E-02 12 12  5  2
  -0.298175632460E-02 12 12  5  3
  -0.284388836473E-01 12 12  5  4
   0.164977210726     12 12  5  5
   0.245789336396E-02 12 12  6  1
   0.115336788235E-01 12 12  6  2
   0.152936315482E-01 12 12  6  3
  -0.366687760592E-02 12 12  6  4
   0.657336383101E-02 12 12  6  5
   0.151062111195     12 12  6  6
   0.502278635996     12 12  7  7
  -0.440576822808E-01 12 12  8  7
   0.184726072223     12 12  8  8
  -0.144681488109E-01 12 12  9  7
   0.287521772445E-01 12 12  9  8
   0.171827674065     12 12  9  9
   0.595381608954E-01 12 12 10  7
  -0.564403708039E-01 12 12 10  8
  -0.832465686155E-02 12 12 10  9
   0.233471720947     12 12 10 10
   0.365988654783E-01 12 12 11  7
  -0.137558383944E-01 12 12 11  8
   0.283083154825E-01 12 12 11  9
   0.343071465659E-01 12 12 11 10
   0.255516549468     12 12 11 11
   0.553415958470     12 12 12 12
  -0.261793529006E-01 13 12  1  1
   0.163637127626E-01 13 12  2  1
   0.279119806092E-01 13 12  2  2
   0.174580509814E-02 13 12  3  1
   0.568725322171E-02 13 12  3  2
   0.351931014926E-01 13 12  3  3
   0.110098279100E-02 13 12  4  1
  -0.139437856058E-01 13 12  4  2
  -0.566323509103E-02 13 12  4  3
   0.487749769505E-02 13 12  4  4
  -0.713146556966E-03 13 12  5  1
   0.141038891058E-02 13 12  5  2
  -0.176016411305E-03 13 12  5  3
  -0.236544008295E-02 13 12  5  4
  -0.566791234594E-02 13 12  5  5
   0.117865398626E-02 13 12  6  1
   0.772305944674E-03 13 12  6  2
   0.162346153177E-02 13 12  6  3
  -0.235053915014E-02 13 12  6  4
  -0.139137722661E-02 13 12  6  5
   0.817290634759E-03 13 12  6  6
   0.250985274087E-01 13 12  7  7
  -0.453770113073E-02 13 12  8  7
  -0.752094299795E-03 13 12  8  8
  -0.164328082116E-02 13 12  9  7
  -0.280805044833E-02 13 12  9  8
  -0.269428926759E-02 13 12  9  9
   0.796036202586E-02 13 12 10  7
  -0.271830365457E-02 13 12 10  8
  -0.190911507675E-03 13 12 10  9
   0.287963247507E-02 13 12 10 10
   0.199622519079E-02 13 12 11  7
  -0.214894726615E-02 13 12 11  8
  -0.123378546867E-03 13 12 11  9
   0.491408590525E-02 13 12 11 10
   0.632748237754E-02 13 12 11 11
   0.358010038183E-01 13 12 12 12
   0.874032856172E-02 13 12 13 12
   0.561173160659     13 13  1  1
  -0.803513272701E-01 13 13  2  1
   0.308093711529     13 13  2  2
  -0.543244299928E-02 13 13  3  1
  -0.168675317779E-01 13 13  3  2
   0.279265151092     13 13  3  3
  -0.447208392998E-01 13 13  4  1
   0.240965810155E-01 13 13  4  2
  -0.332466343197E-02 13 13  4  3
   0.340016699298     13 13  4  4
   0.100234931235E-01 13 13  5  1
  -0.326288531338E-02 13 13  5  2
   0.486398729201E-03 13 13  5  3
  -0.540846523997E-02 13 13  5  4
   0.217069224849     13 13  5  5
  -0.935456598411E-02 13 13  6  1
   0.761892132217E-02 13 13  6  2
   0.399019166134E-02 13 13  6  3
   0.139118181999E-01 13 13  6  4
   0.205220531089E-01 13 13  6  5
   0.143845670534     13 13  6  6
   0.305435686094     13 13  7  7
  -0.973022152869E-02 13 13  8  7
   0.190071710281     13 13  8  8
  -0.300248874179E-02 13 13  9  7
   0.531900955031E-01 13 13  9  8
   0.194317171981     13 13  9  9
  -0.214343861770E-02 13 13 10  7
  -0.312307039316E-01 13 13 10  8
  -0.530537506618E-02 13 13 10  9
   0.207029006371     13 13 10 10
   0.190908972790E-01 13 13 11  7
   0.325647798231E-02 13 13 11  8
   0.282892126003E-01 13 13 11  9
  -0.698013780640E-02 13 13 11 10
   0.203734533495     13 13 11 11
   0.278682581041     13 13 12 12
  -0.319981043484E-01 13 13 13 12
   0.594936603215     13 13 13 13
  -0.155092457081E-01 14 12  1  1
  -0.488007605393E-02 14 12  2  1
  -0.311101408925E-01 14 12  2  2
   0.214364581435E-01 14 12  3  1
   0.793627951096E-01 14 12  3  2
  -0.334264389315E-01 14 12  3  3
  -0.278728859534E-02 14 12  4  1
  -0.404960165997E-02 14 12  4  2
  -0.279842937747E-01 14 12  4  3
  -0.115993027830E-01 14 12  4  4
   0.230483995688E-03 14 12  5  1
  -0.557347997137E-03 14 12  5  2
   0.368897212572E-02 14 12  5  3
   0.181811437144E-02 14 12  5  4
  -0.292124708848E-02 14 12  5  5
   0.682422375876E-03 14 12  6  1
   0.245404960871E-02 14 12  6  2
   0.102046993309E-02 14 12  6  3
  -0.293361676781E-02 14 12  6  4
   0.111527974361E-03 14 12  6  5
  -0.494455883478E-03 14 12  6  6
  -0.347648518687E-01 14 12  7  7
   0.450677287608E-02 14 12  8  7
  -0.427751322603E-02 14 12  8  8
   0.305864073777E-03 14 12  9  7
  -0.214930172061E-02 14 12  9  8
  -0.348706075417E-02 14 12  9  9
  -0.614145349425E-02 14 12 10  7
   0.384993550022E-02 14 12 10  8
   0.123015680374E-02 14 12 10  9
  -0.855773153979E-02 14 12 10 10
  -0.145446733819E-01 14 12 11  7
   0.650732899682E-03 14 12 11  8
  -0.438570402308E-03 14 12 11  9
  -0.185225298218E-02 14 12 11 10
  -0.172055889712E-02 14 12 11 11
   0.291769007985E-02 14 12 12 12
   0.649019660818E-02 14 12 13 12
  -0.108154225574E-01 14 12 13 13
   0.745770196889E-01 14 12 14 12
  -0.268196424597E-01 14 13  1  1
   0.117677294623E-01 14 13  2  1
   0.100389637887E-01 14 13  2  2
   0.273238994417E-02 14 13  3  1
   0.982072771510E-02 14 13  3  2
   0.154444588757E-01 14 13  3  3
   0.438983661491E-02 14 13  4  1
  -0.734028776822E-02 14 13  4  2
  -0.550109893195E-02 14 13  4  3
   0.198513442948E-02 14 13  4  4
  -0.102582037690E-02 14 13  5  1
   0.613457476576E-03 14 13  5  2
   0.234591283672E-03 14 13  5  3
  -0.138882184062E-02 14 13  5  4
  -0.403048704358E-02 14 13  5  5
   0.122898918501E-02 14 13  6  1
   0.444153125340E-03 14 13  6  2
   0.913986179849E-03 14 13  6  3
  -0.159552457575E-02 14 13  6  4
  -0.100165606275E-02 14 13  6  5
   0.330264259243E-03 14 13  6  6
   0.695918100866E-02 14 13  7  7
  -0.147808618789E-02 14 13  8  7
  -0.104269840944E-02 14 13  8  8
  -0.516825947035E-03 14 13  9  7
  -0.204059630002E-02 14 13  9  8
  -0.216928410984E-02 14 13  9  9
   0.335944063184E-02 14 13 10  7
  -0.113027303540E-02 14 13 10  8
  -0.435837439817E-04 14 13 10  9
   0.498099990979E-03 14 13 10 10
  -0.828836328729E-03 14 13 11  7