 &FCI NORB= 44,NELEC= 26,MS2= 0,
  ORBSYM=1,1,1,1,1,1,2,2,2,2,2,3,3,3,3,3,3,4,4,4,4,4,5,5,5,5,5,5,6,6,6,6,6,7,7,7,7,7,7,8,8,8,8,8
 /
   0.588709461748      1  1  1  1
   0.661689046128E-01  2  1  1  1
   0.365035492089E-01  2  1  2  1
   0.349052547614      2  2  1  1
  -0.419827122112E-01  2  2  2  1
   0.473673059876      2  2  2  2
  -0.256969049376E-01  3  1  1  1
  -0.203344636196E-01  3  1  2  1
   0.215730414340E-01  3  1  2  2
   0.175976289570E-01  3  1  3  1
  -0.558623579636E-01  3  2  1  1
  -0.251124706902E-02  3  2  2  1
  -0.108319692691E-01  3  2  2  2
  -0.168450845540E-01  3  2  3  1
   0.707877826502E-01  3  2  3  2
   0.324878687840      3  3  1  1
  -0.452544671857E-01  3  3  2  1
   0.459823283573      3  3  2  2
   0.224641025582E-01  3  3  3  1
   0.115671728059E-01  3  3  3  2
   0.482263638016      3  3  3  3
  -0.231928208849E-01  4  1  1  1
  -0.846883933631E-02  4  1  2  1
  -0.723142191702E-02  4  1  2  2
   0.905921058297E-02  4  1  3  1
  -0.763298869018E-03  4  1  3  2
   0.203981983924E-02  4  1  3  3
   0.140698993179E-01  4  1  4  1
  -0.163829082518E-01  4  2  1  1
  -0.158009983971E-01  4  2  2  1
   0.296659854716E-01  4  2  2  2
   0.893919546102E-02  4  2  3  1
  -0.158516270247E-01  4  2  3  2
   0.103074626924E-01  4  2  3  3
  -0.866031048219E-02  4  2  4  1
   0.315734132360E-01  4  2  4  2
   0.253705010465E-01  4  3  1  1
   0.221148257235E-01  4  3  2  1
  -0.654645284358E-01  4  3  2  2
   0.883534714422E-03  4  3  3  1
  -0.335702158471E-01  4  3  3  2
  -0.748108676669E-01  4  3  3  3
   0.137637876646E-01  4  3  4  1
  -0.199698135027E-01  4  3  4  2
   0.757744691853E-01  4  3  4  3
   0.362669876646      4  4  1  1
  -0.404585179842E-01  4  4  2  1
   0.456639250846      4  4  2  2
   0.329122910986E-01  4  4  3  1
  -0.372918814767E-01  4  4  3  2
   0.459454838871      4  4  3  3
   0.510687061559E-02  4  4  4  1
   0.201062178842E-01  4  4  4  2
  -0.474895362482E-01  4  4  4  3
   0.489447949372      4  4  4  4
  -0.579257510259E-02  5  1  1  1
  -0.568822719879E-02  5  1  2  1
   0.104979721005E-01  5  1  2  2
   0.375107969730E-02  5  1  3  1
  -0.851631857929E-03  5  1  3  2
   0.115691322686E-01  5  1  3  3
   0.183527380895E-02  5  1  4  1
   0.109881737107E-02  5  1  4  2
  -0.117500871186E-02  5  1  4  3
   0.115125651427E-01  5  1  4  4
   0.370858404160E-02  5  1  5  1
  -0.804684023801E-02  5  2  1  1
   0.373563912298E-02  5  2  2  1
  -0.175578818837E-01  5  2  2  2
  -0.235112958851E-02  5  2  3  1
   0.497547273236E-03  5  2  3  2
  -0.193655841894E-01  5  2  3  3
  -0.833854150422E-03  5  2  4  1
  -0.305035267478E-03  5  2  4  2
   0.479956805781E-02  5  2  4  3
  -0.188897225149E-01  5  2  4  4
   0.275835631506E-04  5  2  5  1
   0.228161282802E-02  5  2  5  2
   0.348266541926E-02  5  3  1  1
  -0.735783856391E-03  5  3  2  1
  -0.816719391213E-03  5  3  2  2
   0.371063746197E-02  5  3  3  1
  -0.101436769373E-01  5  3  3  2
  -0.272510433182E-02  5  3  3  3
   0.225027746356E-02  5  3  4  1
   0.935540771470E-03  5  3  4  2
   0.933228137091E-02  5  3  4  3
   0.367621673101E-02  5  3  4  4
   0.291070208048E-03  5  3  5  1
  -0.248258112712E-03  5  3  5  2
   0.257213288819E-02  5  3  5  3
   0.385750404944E-03  5  4  1  1
  -0.637099466135E-02  5  4  2  1
   0.187822445757E-01  5  4  2  2
   0.412644434491E-02  5  4  3  1
   0.144919117795E-02  5  4  3  2
   0.235924861383E-01  5  4  3  3
   0.302305758788E-02  5  4  4  1
  -0.123556712579E-02  5  4  4  2
  -0.311788751949E-02  5  4  4  3
   0.221917037812E-01  5  4  4  4
   0.219925556783E-02  5  4  5  1
  -0.189890859329E-02  5  4  5  2
   0.926136473284E-03  5  4  5  3
   0.452603523465E-02  5  4  5  4
   0.245880153626      5  5  1  1
   0.110711792838E-01  5  5  2  1
   0.205163308664      5  5  2  2
  -0.410900833230E-02  5  5  3  1
  -0.980292007892E-02  5  5  3  2
   0.199668397023      5  5  3  3
  -0.216854426779E-02  5  5  4  1
  -0.249714511556E-02  5  5  4  2
   0.373618253028E-02  5  5  4  3
   0.207579870438      5  5  4  4
  -0.391243945934E-02  5  5  5  1
  -0.550877024984E-03  5  5  5  2
  -0.131956138659E-02  5  5  5  3
  -0.625467576688E-02  5  5  5  4
   0.217096308813      5  5  5  5
  -0.982735974586E-02  6  1  1  1
  -0.268943663059E-02  6  1  2  1
  -0.816893326180E-03  6  1  2  2
   0.997079735375E-03  6  1  3  1
   0.161693746585E-02  6  1  3  2
  -0.590827070441E-03  6  1  3  3
   0.279392248266E-03  6  1  4  1
   0.168233470819E-02  6  1  4  2
  -0.300232194658E-02  6  1  4  3
  -0.201726707125E-02  6  1  4  4
  -0.684423557491E-03  6  1  5  1
  -0.217031486163E-03  6  1  5  2
  -0.252695233843E-03  6  1  5  3
  -0.323073485169E-03  6  1  5  4
   0.605304593372E-03  6  1  5  5
   0.875813308726E-03  6  1  6  1
  -0.939886356157E-02  6  2  1  1
   0.265607905245E-02  6  2  2  1
  -0.185668773841E-01  6  2  2  2
  -0.635576612955E-03  6  2  3  1
  -0.929401397408E-03  6  2  3  2
  -0.175657286010E-01  6  2  3  3
   0.160505006672E-02  6  2  4  1
  -0.277681297627E-02  6  2  4  2
   0.787971400299E-02  6  2  4  3
  -0.161748107595E-01  6  2  4  4
  -0.603011859451E-03  6  2  5  1
   0.125302111088E-02  6  2  5  2
   0.659718810643E-03  6  2  5  3
  -0.969442225425E-03  6  2  5  4
  -0.168962424942E-02  6  2  5  5
  -0.783591473271E-04  6  2  6  1
   0.177279107913E-02  6  2  6  2
  -0.176397606148E-02  6  3  1  1
   0.140112714242E-02  6  3  2  1
  -0.681471180903E-02  6  3  2  2
  -0.201797225478E-03  6  3  3  1
  -0.308502416978E-02  6  3  3  2
  -0.854561281158E-02  6  3  3  3
  -0.115253327858E-02  6  3  4  1
   0.226835586705E-02  6  3  4  2
   0.232817045660E-02  6  3  4  3
  -0.767738771471E-02  6  3  4  4
  -0.243698285750E-03  6  3  5  1
   0.749904114215E-03  6  3  5  2
   0.652532720263E-03  6  3  5  3
  -0.718822602033E-03  6  3  5  4
  -0.108547665390E-02  6  3  5  5
  -0.101881182902E-04  6  3  6  1
   0.408880754534E-03  6  3  6  2
   0.110712760108E-02  6  3  6  3
  -0.787554937711E-02  6  4  1  1
   0.261244639980E-02  6  4  2  1
  -0.111789593258E-01  6  4  2  2
  -0.357896190360E-02  6  4  3  1
   0.805541280207E-02  6  4  3  2
  -0.823947856933E-02  6  4  3  3
  -0.117263808524E-02  6  4  4  1
  -0.212038262750E-02  6  4  4  2
  -0.297389777673E-02  6  4  4  3
  -0.154953484704E-01  6  4  4  4
  -0.959732062975E-03  6  4  5  1
   0.655503142192E-03  6  4  5  2
  -0.110354012498E-02  6  4  5  3
  -0.850171052701E-03  6  4  5  4
  -0.557875356907E-03  6  4  5  5
   0.389910188998E-03  6  4  6  1
   0.190449037212E-03  6  4  6  2
   0.642150745625E-03  6  4  6  3
   0.265273695619E-02  6  4  6  4
  -0.174256426882E-01  6  5  1  1
  -0.527220252711E-02  6  5  2  1
   0.169710968066E-02  6  5  2  2
   0.213058717558E-02  6  5  3  1
   0.363206652559E-02  6  5  3  2
   0.369329288504E-02  6  5  3  3
   0.702055520910E-03  6  5  4  1
   0.980488012921E-03  6  5  4  2
  -0.265734805315E-02  6  5  4  3
   0.505894686667E-03  6  5  4  4
   0.291545622153E-02  6  5  5  1
   0.746757727538E-04  6  5  5  2
   0.364362871426E-03  6  5  5  3
   0.361836159311E-02  6  5  5  4
  -0.202350636757E-01  6  5  5  5
  -0.777299694497E-03  6  5  6  1
   0.494445481665E-04  6  5  6  2
  -0.143515972437E-04  6  5  6  3
  -0.805373400568E-03  6  5  6  4
   0.103532125982E-01  6  5  6  5
   0.170003054994      6  6  1  1
  -0.116361546978E-02  6  6  2  1
   0.171286623968      6  6  2  2
   0.135497925335E-02  6  6  3  1
  -0.281180847226E-02  6  6  3  2
   0.170355417094      6  6  3  3
   0.696567740785E-03  6  6  4  1
  -0.303597894740E-03  6  6  4  2
   0.700860016271E-03  6  6  4  3
   0.173525475263      6  6  4  4
   0.432721185387E-03  6  6  5  1
  -0.987502903501E-03  6  6  5  2
   0.227982832346E-03  6  6  5  3
   0.855811268856E-03  6  6  5  4
   0.149867848937      6  6  5  5
  -0.539611148237E-03  6  6  6  1
  -0.221165308802E-03  6  6  6  2
  -0.125232043590E-02  6  6  6  3
  -0.263763213304E-02  6  6  6  4
   0.741320793115E-03  6  6  6  5
   0.144187701763      6  6  6  6
   0.326741435684      7  7  1  1
  -0.406213389955E-01  7  7  2  1
   0.450980436472      7  7  2  2
   0.175299739921E-01  7  7  3  1
  -0.883915695683E-03  7  7  3  2
   0.433505799738      7  7  3  3
  -0.651362546255E-02  7  7  4  1
   0.270016428786E-01  7  7  4  2
  -0.606596761463E-01  7  7  4  3
   0.430370816195      7  7  4  4
   0.950255217763E-02  7  7  5  1
  -0.163447940492E-01  7  7  5  2
  -0.196443834397E-02  7  7  5  3
   0.168130283911E-01  7  7  5  4
   0.201437664556      7  7  5  5
  -0.856922530701E-03  7  7  6  1
  -0.159838691447E-01  7  7  6  2
  -0.719317453884E-02  7  7  6  3
  -0.105969778964E-01  7  7  6  4
   0.246003157164E-02  7  7  6  5
   0.172255348885      7  7  6  6
   0.455640719174      7  7  7  7
  -0.119049056261E-01  8  7  1  1
   0.105372150420E-01  8  7  2  1
  -0.480048374825E-01  8  7  2  2
  -0.265549069676E-02  8  7  3  1
  -0.657507838447E-02  8  7  3  2
  -0.455689977846E-01  8  7  3  3
   0.283805081437E-02  8  7  4  1
  -0.816121737835E-02  8  7  4  2
   0.202383205089E-01  8  7  4  3
  -0.392128356010E-01  8  7  4  4
  -0.176642308525E-02  8  7  5  1
   0.343812693067E-02  8  7  5  2
   0.131209122647E-02  8  7  5  3
  -0.352381765331E-02  8  7  5  4
  -0.419538335937E-03  8  7  5  5
  -0.516655760767E-03  8  7  6  1
   0.390515612722E-02  8  7  6  2
   0.860550739868E-03  8  7  6  3
   0.112047721957E-03  8  7  6  4
  -0.124144450701E-02  8  7  6  5
  -0.743832941062E-03  8  7  6  6
  -0.494287780967E-01  8  7  7  7
   0.125105439831E-01  8  7  8  7
   0.207421126719      8  8  1  1
  -0.930775565983E-03  8  8  2  1
   0.205349198146      8  8  2  2
   0.212869115901E-02  8  8  3  1
  -0.781589299619E-02  8  8  3  2
   0.201155595757      8  8  3  3
   0.297771168560E-03  8  8  4  1
  -0.107280979852E-03  8  8  4  2
  -0.606572403551E-04  8  8  4  3
   0.209629509603      8  8  4  4
   0.879965682485E-03  8  8  5  1
  -0.156193656401E-02  8  8  5  2
  -0.718799014597E-03  8  8  5  3
  -0.362595894939E-03  8  8  5  4
   0.174444826739      8  8  5  5
  -0.874638169646E-03  8  8  6  1
  -0.151604233028E-02  8  8  6  2
  -0.267146325920E-02  8  8  6  3
  -0.509128999686E-02  8  8  6  4
  -0.180405073046E-02  8  8  6  5
   0.152461409896      8  8  6  6
   0.206099993847      8  8  7  7
  -0.186488187081E-02  8  8  8  7
   0.176800214215      8  8  8  8
  -0.136817951673E-03  9  7  1  1
  -0.758770153102E-02  9  7  2  1
   0.276543233007E-01  9  7  2  2
   0.107801649999E-02  9  7  3  1
   0.788290270838E-02  9  7  3  2
   0.268662151119E-01  9  7  3  3
  -0.233693973401E-02  9  7  4  1
   0.588290238252E-02  9  7  4  2
  -0.158376938913E-01  9  7  4  3
   0.199245668422E-01  9  7  4  4
   0.117247079865E-02  9  7  5  1
  -0.212237601153E-02  9  7  5  2
  -0.128976082672E-02  9  7  5  3
   0.239236751328E-02  9  7  5  4
  -0.302643491079E-02  9  7  5  5
   0.485937668058E-03  9  7  6  1
  -0.255618667920E-02  9  7  6  2
  -0.430402771352E-03  9  7  6  3
   0.534341469740E-03  9  7  6  4
   0.167289581271E-02  9  7  6  5
  -0.763800466256E-04  9  7  6  6
   0.294120054934E-01  9  7  7  7
  -0.869118164033E-02  9  7  8  7
  -0.686828225469E-03  9  7  8  8
   0.652189204935E-02  9  7  9  7
  -0.623558653740E-01  9  8  1  1
  -0.943222024990E-03  9  8  2  1
  -0.559239689246E-01  9  8  2  2
  -0.570583458675E-03  9  8  3  1
   0.535067499046E-02  9  8  3  2
  -0.531354473574E-01  9  8  3  3
   0.262409920179E-03  9  8  4  1
   0.358386146478E-03  9  8  4  2
   0.129061075611E-03  9  8  4  3
  -0.585192132526E-01  9  8  4  4
  -0.121331041247E-03  9  8  5  1
   0.108976688582E-02  9  8  5  2
   0.550976285180E-03  9  8  5  3
   0.673950498917E-03  9  8  5  4
  -0.387202368766E-01  9  8  5  5
   0.427936810860E-03  9  8  6  1
   0.146001678756E-02  9  8  6  2
   0.131419738477E-02  9  8  6  3
   0.225470554783E-02  9  8  6  4
   0.508239211636E-02  9  8  6  5
  -0.150796688398E-01  9  8  6  6
  -0.551793547830E-01  9  8  7  7
   0.237092275059E-02  9  8  8  7
  -0.285871290229E-01  9  8  8  8
   0.394481634856E-03  9  8  9  7
   0.222165804296E-01  9  8  9  8
   0.185715969440      9  9  1  1
   0.115769550142E-02  9  9  2  1
   0.177007781690      9  9  2  2
   0.121536458517E-02  9  9  3  1
  -0.781433134357E-02  9  9  3  2
   0.173723458406      9  9  3  3
   0.398262778387E-03  9  9  4  1
  -0.123993102670E-02  9  9  4  2
   0.224120862489E-02  9  9  4  3
   0.181711491817      9  9  4  4
   0.436183793361E-03  9  9  5  1
  -0.116593172379E-02  9  9  5  2
  -0.388629963242E-03  9  9  5  3
  -0.587440624199E-03  9  9  5  4
   0.154725955406      9  9  5  5
  -0.821054421704E-03  9  9  6  1
  -0.119746614495E-02  9  9  6  2
  -0.194610458056E-02  9  9  6  3
  -0.380982292128E-02  9  9  6  4
  -0.202638427124E-02  9  9  6  5
   0.137971350504      9  9  6  6
   0.176744452367      9  9  7  7
  -0.105139013026E-02  9  9  8  7
   0.156006386249      9  9  8  8
  -0.109039016749E-02  9  9  9  7
  -0.191228257045E-01  9  9  9  8
   0.145048666477      9  9  9  9
  -0.178691269972E-02 10  7  1  1
  -0.911539281488E-02 10  7  2  1
   0.304593950816E-01 10  7  2  2
   0.209115593272E-02 10  7  3  1
   0.678856339094E-02 10  7  3  2
   0.286337077080E-01 10  7  3  3
  -0.219542572162E-02 10  7  4  1
   0.735683362045E-02 10  7  4  2
  -0.178819925727E-01 10  7  4  3
   0.224488016160E-01 10  7  4  4
   0.853291422304E-03 10  7  5  1
  -0.220413676922E-02 10  7  5  2
  -0.169262001723E-02 10  7  5  3
   0.146647701669E-02 10  7  5  4
   0.249821371716E-02 10  7  5  5
   0.113605278729E-02 10  7  6  1
  -0.315396969986E-02 10  7  6  2
  -0.461274530660E-03 10  7  6  3
   0.822486666696E-03 10  7  6  4
  -0.695202690652E-03 10  7  6  5
  -0.201084798612E-02 10  7  6  6
   0.308403268193E-01 10  7  7  7
  -0.936669298976E-02 10  7  8  7
   0.282903735357E-03 10  7  8  8
   0.655074211846E-02 10  7  9  7
  -0.193873609470E-02 10  7  9  8
   0.124852468962E-05 10  7  9  9
   0.896738081290E-02 10  7 10  7
  -0.117880758765E-01 10  8  1  1
   0.795951068686E-02 10  8  2  1
  -0.356710890262E-01 10  8  2  2
  -0.457669687768E-02 10  8  3  1
   0.513301111770E-03 10  8  3  2
  -0.357839615034E-01 10  8  3  3
  -0.177985564196E-02 10  8  4  1
  -0.167956734365E-02 10  8  4  2
   0.326282380254E-02 10  8  4  3
  -0.375820103779E-01 10  8  4  4
  -0.301649256616E-02 10  8  5  1
   0.176291814412E-02 10  8  5  2
  -0.813330093834E-03 10  8  5  3
  -0.467710743509E-02 10  8  5  4
   0.654082243090E-02 10  8  5  5
   0.958892297758E-03 10  8  6  1
   0.550523623629E-03 10  8  6  2
   0.162335583588E-02 10  8  6  3
   0.375609063620E-02 10  8  6  4
  -0.843744962495E-02 10  8  6  5
  -0.146480105688E-01 10  8  6  6
  -0.378312264137E-01 10  8  7  7
   0.359146888038E-02 10  8  8  7
  -0.112921067663E-01 10  8  8  8
  -0.261369609689E-02 10  8  9  7
   0.106210285766E-02 10  8  9  8
  -0.764965158576E-02 10  8  9  9
   0.167048571642E-02 10  8 10  7
   0.212009755720E-01 10  8 10  8
  -0.476205769748E-02 10  9  1  1
  -0.498212541180E-02 10  9  2  1
   0.103104407354E-01 10  9  2  2
   0.286482682446E-02 10  9  3  1
  -0.181299650651E-03 10  9  3  2
   0.105623092496E-01 10  9  3  3
   0.115167359995E-02 10  9  4  1
   0.105557261065E-02 10  9  4  2
  -0.238575611905E-02 10  9  4  3
   0.114882605863E-01 10  9  4  4
   0.174107573065E-02 10  9  5  1
  -0.115218107869E-02 10  9  5  2
   0.499155144003E-03 10  9  5  3
   0.281488392976E-02 10  9  5  4
  -0.113579218100E-01 10  9  5  5
  -0.416484280179E-03 10  9  6  1
  -0.540369406603E-03 10  9  6  2
  -0.855945344100E-03 10  9  6  3
  -0.182070666470E-02 10  9  6  4
   0.362685727768E-02 10  9  6  5
  -0.255112506547E-02 10  9  6  6
   0.110148672702E-01 10  9  7  7
  -0.266503690580E-02 10  9  8  7
  -0.334217230153E-02 10  9  8  8
   0.175725787586E-02 10  9  9  7
   0.148830835557E-02 10  9  9  8
  -0.258129734852E-02 10  9  9  9
   0.352595939184E-03 10  9 10  7
  -0.598563717544E-02 10  9 10  8
   0.526698918039E-02 10  9 10  9
   0.210351212576     10 10  1  1
  -0.225649360385E-02 10 10  2  1
   0.211011217112     10 10  2  2
   0.341971712787E-02 10 10  3  1
  -0.894729149938E-02 10 10  3  2
   0.207409523251     10 10  3  3
   0.164527360677E-02 10 10  4  1
  -0.684445410300E-03 10 10  4  2
   0.205962290187E-02 10 10  4  3
   0.217668033234     10 10  4  4
   0.526087344276E-03 10 10  5  1
  -0.223803945318E-02 10 10  5  2
   0.156158304031E-03 10 10  5  3
   0.502806988141E-03 10 10  5  4
   0.179939707788     10 10  5  5
  -0.910140977063E-03 10 10  6  1
  -0.790134660718E-03 10 10  6  2
  -0.326488398189E-02 10 10  6  3
  -0.637789312646E-02 10 10  6  4
  -0.387125577444E-02 10 10  6  5
   0.159056055437     10 10  6  6
   0.213369820910     10 10  7  7
  -0.105249199844E-02 10 10  8  7
   0.180323688408     10 10  8  8
  -0.108238628245E-02 10 10  9  7
  -0.298935486087E-01 10 10  9  8
   0.156276878723     10 10  9  9
  -0.250711162721E-02 10 10 10  7
  -0.160920065807E-01 10 10 10  8
  -0.272249377369E-02 10 10 10  9
   0.196320199118     10 10 10 10
   0.238638295894E-01 11  7  1  1
   0.286053395983E-02 11  7  2  1
   0.727314288319E-02 11  7  2  2
   0.220721726537E-02 11  7  3  1
  -0.134112944686E-01 11  7  3  2
   0.420675660086E-02 11  7  3  3
   0.135820000907E-02 11  7  4  1
  -0.184765518117E-02 11  7  4  2
   0.913962502113E-02 11  7  4  3
   0.153044683289E-01 11  7  4  4
   0.167453407762E-04 11  7  5  1
  -0.538269814357E-03 11  7  5  2
   0.157765703749E-02 11  7  5  3
  -0.202861730015E-03 11  7  5  4
   0.611603953446E-02 11  7  5  5
  -0.763294164451E-03 11  7  6  1
   0.130838507046E-03 11  7  6  2
  -0.677187970389E-03 11  7  6  3
  -0.273140367156E-02 11  7  6  4
  -0.171958944475E-02 11  7  6  5
   0.202798984731E-02 11  7  6  6
   0.497223028191E-02 11  7  7  7
   0.226817540634E-02 11  7  8  7
   0.569776139871E-02 11  7  8  8
  -0.296510323488E-02 11  7  9  7
  -0.415414230807E-02 11  7  9  8
   0.525997988853E-02 11  7  9  9
  -0.249570472606E-02 11  7 10  7
  -0.109595113975E-02 11  7 10  8
   0.717662061571E-03 11  7 10  9
   0.616942918801E-02 11  7 10 10
   0.547617615798E-02 11  7 11  7
   0.191636129540E-01 11  8  1  1
  -0.356450281711E-04 11  8  2  1
   0.159197007283E-01 11  8  2  2
   0.138476189648E-02 11  8  3  1
  -0.458525578103E-02 11  8  3  2
   0.151162378589E-01 11  8  3  3
   0.113680759374E-02 11  8  4  1
  -0.158757430862E-02 11  8  4  2
   0.253402277563E-02 11  8  4  3
   0.202559026964E-01 11  8  4  4
   0.647884495030E-03 11  8  5  1
  -0.853610858158E-03 11  8  5  2
   0.130093492481E-03 11  8  5  3
   0.492803319992E-03 11  8  5  4
   0.205682969165E-02 11  8  5  5
  -0.665211586107E-03 11  8  6  1
  -0.517150670870E-03 11  8  6  2
  -0.130935679119E-02 11  8  6  3
  -0.268747497664E-02 11  8  6  4
  -0.941851772529E-04 11  8  6  5
   0.113529855983E-02 11  8  6  6
   0.155075803156E-01 11  8  7  7
  -0.528927702970E-03 11  8  8  7
   0.591507814375E-02 11  8  8  8
  -0.689068289308E-03 11  8  9  7
  -0.487060968305E-02 11  8  9  8
   0.650064185442E-02 11  8  9  9
  -0.520347475928E-03 11  8 10  7
  -0.432544848446E-02 11  8 10  8
   0.258728477804E-02 11  8 10  9
   0.470724761635E-02 11  8 10 10
   0.373902372298E-02 11  8 11  7
   0.691830217092E-02 11  8 11  8
  -0.444087170201E-01 11  9  1  1
   0.708968115452E-03 11  9  2  1
  -0.428604757967E-01 11  9  2  2
  -0.192814237082E-02 11  9  3  1
   0.495697228084E-02 11  9  3  2
  -0.422452119421E-01 11  9  3  3
  -0.135182483721E-02 11  9  4  1
   0.145456995409E-02 11  9  4  2
  -0.264878426514E-02 11  9  4  3
  -0.472589274290E-01 11  9  4  4
  -0.111397508208E-02 11  9  5  1
   0.111259358025E-02 11  9  5  2
  -0.476741075473E-03 11  9  5  3
  -0.143206287422E-02 11  9  5  4
  -0.203890711073E-01 11  9  5  5
   0.854559985276E-03 11  9  6  1
   0.695698916970E-03 11  9  6  2
   0.112181617987E-02 11  9  6  3
   0.256873858855E-02 11  9  6  4
  -0.229981421852E-03 11  9  6  5
  -0.145247532911E-01 11  9  6  6
  -0.423026628299E-01 11  9  7  7
   0.154808125432E-02 11  9  8  7
  -0.208090523272E-01 11  9  8  8
   0.244206690687E-03 11  9  9  7
   0.127636775484E-01 11  9  9  8
  -0.144216432413E-01 11  9  9  9
   0.448232589033E-03 11  9 10  7
   0.716121296048E-02 11  9 10  8
  -0.123248472105E-02 11  9 10  9
  -0.224967631273E-01 11  9 10 10
  -0.339419527102E-02 11  9 11  7
  -0.410875528770E-02 11  9 11  8
   0.109953227539E-01 11  9 11  9
  -0.184924966339E-01 11 10  1  1
  -0.798479948968E-03 11 10  2  1
  -0.122770433948E-01 11 10  2  2
  -0.115945006856E-02 11 10  3  1
   0.550732865685E-02 11 10  3  2
  -0.110099447245E-01 11 10  3  3
  -0.120103701264E-02 11 10  4  1
   0.170722792496E-02 11 10  4  2
  -0.316911157329E-02 11 10  4  3
  -0.171496743975E-01 11 10  4  4
   0.391645993259E-03 11 10  5  1
   0.841926891582E-03 11 10  5  2
  -0.149360683239E-03 11 10  5  3
   0.686110405018E-03 11 10  5  4
  -0.132129433771E-01 11 10  5  5
   0.184141483436E-03 11 10  6  1
   0.317143996704E-03 11 10  6  2
   0.147242870417E-02 11 10  6  3
   0.256257743232E-02 11 10  6  4
   0.473683386422E-02 11 10  6  5
  -0.179630696927E-02 11 10  6  6
  -0.117066697608E-01 11 10  7  7
  -0.513425450823E-03 11 10  8  7
  -0.899170997496E-02 11 10  8  8
   0.152387719697E-02 11 10  9  7
   0.681592835208E-02 11 10  9  8
  -0.640940418846E-02 11 10  9  9
   0.136477654641E-03 11 10 10  7
  -0.239709301481E-02 11 10 10  8
  -0.443468456444E-03 11 10 10  9
  -0.115812643207E-01 11 10 10 10
  -0.416404665648E-02 11 10 11  7
  -0.390352736393E-02 11 10 11  8
   0.283025182037E-02 11 10 11  9
   0.902249947085E-02 11 10 11 10
   0.202026280208     11 11  1  1
  -0.379582843574E-02 11 11  2  1
   0.209413022627     11 11  2  2
   0.387814728817E-02 11 11  3  1
  -0.501932484052E-02 11 11  3  2
   0.209805649989     11 11  3  3
   0.233043993792E-02 11 11  4  1
  -0.108818007125E-02 11 11  4  2
   0.253703765075E-02 11 11  4  3
   0.214306058673     11 11  4  4
   0.245536408064E-02 11 11  5  1
  -0.199758497127E-02 11 11  5  2
   0.132081311436E-02 11 11  5  3
   0.411998830658E-02 11 11  5  4
   0.161383315454     11 11  5  5
  -0.139452875092E-02 11 11  6  1
  -0.971631358679E-03 11 11  6  2
  -0.123288543967E-02 11 11  6  3
  -0.343011832352E-02 11 11  6  4
   0.277742966166E-02 11 11  6  5
   0.150226014554     11 11  6  6
   0.209388973952     11 11  7  7
  -0.386685936393E-02 11 11  8  7
   0.163081472348     11 11  8  8
   0.103947251644E-02 11 11  9  7
  -0.249700248956E-01 11 11  9  8
   0.145749283452     11 11  9  9
  -0.994836016749E-03 11 11 10  7
  -0.170233427300E-01 11 11 10  8
  -0.115482762687E-03 11 11 10  9
   0.169739649206     11 11 10 10
   0.285463393841E-02 11 11 11  7
   0.257055163033E-02 11 11 11  8
  -0.224660371336E-01 11 11 11  9
  -0.127246985972E-02 11 11 11 10
   0.172032227615     11 11 11 11
   0.322359643358     12 12  1  1
  -0.543836254713E-01 12 12  2  1
   0.488057228343     12 12  2  2
   0.256242166628E-01 12 12  3  1
  -0.137534799207E-02 12 12  3  2
   0.475659140738     12 12  3  3
  -0.626616819510E-02 12 12  4  1
   0.357913551460E-01 12 12  4  2
  -0.798970136263E-01 12 12  4  3
   0.464917506988     12 12  4  4
   0.120723231040E-01 12 12  5  1
  -0.185290540916E-01 12 12  5  2
  -0.226168028072E-02 12 12  5  3
   0.203398146894E-01 12 12  5  4
   0.200974748381     12 12  5  5
   0.378504362024E-03 12 12  6  1
  -0.199020195270E-01 12 12  6  2
  -0.745581405901E-02 12 12  6  3
  -0.109491867548E-01 12 12  6  4
   0.355485806903E-02 12 12  6  5
   0.171232640282     12 12  6  6
   0.466187130167     12 12  7  7
  -0.530912192918E-01 12 12  8  7
   0.204703247829     12 12  8  8
   0.317667761958E-01 12 12  9  7
  -0.550521872125E-01 12 12  9  8
   0.175613633793     12 12  9  9
   0.350614290151E-01 12 12 10  7
  -0.378847869602E-01 12 12 10  8
   0.117008648097E-01 12 12 10  9
   0.210434564427     12 12 10 10
   0.431943667902E-02 12 12 11  7
   0.151248086160E-01 12 12 11  8
  -0.421752396229E-01 12 12 11  9
  -0.111145836197E-01 12 12 11 10
   0.209478397777     12 12 11 11
   0.508352188119     12 12 12 12
   0.438581211678E-01 13 12  1  1
   0.614856748398E-02 13 12  2  1
   0.175380221679E-02 13 12  2  2
   0.736248668176E-02 13 12  3  1
  -0.432140201472E-01 13 12  3  2
  -0.139846174594E-01 13 12  3  3
  -0.120400693971E-02 13 12  4  1
   0.922531944119E-02 13 12  4  2
   0.218371825436E-01 13 12  4  3
   0.162197274867E-01 13 12  4  4
  -0.283504853987E-03 13 12  5  1
   0.535117642353E-03 13 12  5  2
   0.565983872783E-02 13 12  5  3
  -0.242897316512E-02 13 12  5  4
   0.832527901471E-02 13 12  5  5
  -0.125672358126E-02 13 12  6  1
   0.710319860813E-03 13 12  6  2
   0.218941085476E-02 13 12  6  3
  -0.442285914995E-02 13 12  6  4
  -0.331687811008E-02 13 12  6  5
   0.147503556890E-02 13 12  6  6
  -0.443357670986E-02 13 12  7  7
   0.506388474674E-02 13 12  8  7
   0.467953946192E-02 13 12  8  8
  -0.551718250071E-02 13 12  9  7
  -0.355263119998E-02 13 12  9  8
   0.498661885058E-02 13 12  9  9
  -0.493843561457E-02 13 12 10  7
   0.122923408383E-02 13 12 10  8
  -0.870365060273E-03 13 12 10  9
   0.490117885900E-02 13 12 10 10
   0.830185059512E-02 13 12 11  7
   0.265668694915E-02 13 12 11  8
  -0.274253024169E-02 13 12 11  9
  -0.328411807482E-02 13 12 11 10
   0.209798606333E-02 13 12 11 11
  -0.495868076860E-02 13 12 12 12
   0.280317576486E-01 13 12 13 12
   0.503976920516     13 13  1  1
   0.373424903012E-01 13 13  2  1
   0.369929368864     13 13  2  2
  -0.169858545824E-01 13 13  3  1
  -0.269394821516E-01 13 13  3  2
   0.359842707831     13 13  3  3
  -0.187767838151E-01 13 13  4  1
  -0.103294513337E-01 13 13  4  2
  -0.800970797638E-02 13 13  4  3
   0.373436856783     13 13  4  4
  -0.188884292477E-02 13 13  5  1
  -0.987938045042E-02 13 13  5  2
  -0.645633104739E-03 13 13  5  3
   0.464374262521E-02 13 13  5  4
   0.234268491667     13 13  5  5
  -0.688581869216E-02 13 13  6  1
  -0.114960731520E-01 13 13  6  2
  -0.355647077007E-02 13 13  6  3
  -0.611603584139E-02 13 13  6  4
  -0.124113602239E-01 13 13  6  5
   0.169130080981     13 13  6  6
   0.348881560698     13 13  7  7
  -0.207610006013E-01 13 13  8  7
   0.204042812519     13 13  8  8
   0.755821774595E-02 13 13  9  7
  -0.590816312383E-01 13 13  9  8
   0.181122168659     13 13  9  9
   0.666576804566E-02 13 13 10  7
  -0.162345033957E-01 13 13 10  8
  -0.186334031009E-02 13 13 10  9
   0.207164289994     13 13 10 10
   0.165253823368E-01 13 13 11  7
   0.169197895953E-01 13 13 11  8
  -0.423843826460E-01 13 13 11  9
  -0.153976613698E-01 13 13 11 10
   0.201733546567     13 13 11 11
   0.356146090504     13 13 12 12
   0.247247189565E-01 13 13 13 12
   0.478362663892     13 13 13 13
  -0.206830067505E-01 14 12  1  1
   0.147035615552E-01 14 12  2  1
  -0.360706354196E-01 14 12  2  2
  -0.219112064613E-01 14 12  3  1
   0.594831760286E-01 14 12  3  2
  -0.118185051217E-01 14 12  3  3
   0.921092490251E-03 14 12  4  1
  -0.286417639479E-01 14 12  4  2
  -0.992621466104E-02 14 12  4  3
  -0.513479776103E-01 14 12  4  4
  -0.269689361260E-02 14 12  5  1
   0.200198264137E-02 14 12  5  2
  -0.810846028568E-02 14 12  5  3
  -0.467004276454E-03 14 12  5  4
  -0.365156886457E-02 14 12  5  5
  -0.156379037773E-03 14 12  6  1
   0.148211728427E-02 14 12  6  2
  -0.254085893533E-02 14 12  6  3
   0.788819734739E-02 14 12  6  4
   0.847218055389E-03 14 12  6  5
  -0.262660200909E-02 14 12  6  6
  -0.271447991458E-01 14 12  7  7
   0.195075611162E-02 14 12  8  7
  -0.693918822339E-02 14 12  8  8
   0.112897189599E-02 14 12  9  7
   0.412516462084E-02 14 12  9  8
  -0.569685605681E-02 14 12  9  9
  -0.817584502612E-03 14 12 10  7
   0.379142327897E-02 14 12 10  8
  -0.226793011947E-02 14 12 10  9
  -0.801138423001E-02 14 12 10 10
  -0.903454806311E-02 14 12 11  7
  -0.319751959772E-02 14 12 11  8
   0.373077703311E-02 14 12 11  9
   0.364933230616E-02 14 12 11 10
  -0.485596138394E-02 14 12 11 11
  -0.347541095040E-01 14 12 12 12
  -0.344991018186E-01 14 12 13 12
  -0.765651069308E-02 14 12 13 13
   0.611091490791E-01 14 12 14 12
   0.130773525140     14 13  1  1
   0.597377418572E-01 14 13  2  1
  -0.675971036295E-01 14 13  2  2
  -0.262793111754E-01 14 13  3  1
  -0.321520988634E-01 14 13  3  2
  -0.897777705643E-01 14 13  3  3
  -0.113125211492E-01 14 13  4  1
  -0.190408725445E-01 14 13  4  2
   0.583087547530E-01 14 13  4  3
  -0.595019639087E-01 14 13  4  4
  -0.919042448488E-02 14 13  5  1
   0.644360720886E-02 14 13  5  2
   0.328090423528E-02 14 13  5  3
  -0.123552149697E-01 14 13  5  4
   0.241122759339E-01 14 13  5  5
  -0.495227476687E-02 14 13  6  1
   0.519014661051E-02 14 13  6  2
   0.335847385279E-02 14 13  6  3
   0.565182180689E-03 14 13  6  4
  -0.111476392995E-01 14 13  6  5
  -0.238764938410E-03 14 13  6  6
  -0.631668330716E-01 14 13  7  7
   0.196438014632E-01 14 13  8  7
   0.289804294729E-02 14 13  8  8
  -0.155149306002E-01 14 13  9  7
  -0.455496029761E-02 14 13  9  8
   0.615949822518E-02 14 13  9  9
  -0.177930715945E-01 14 13 10  7
   0.129665718433E-01 14 13 10  8
  -0.831098081857E-02 14 13 10  9
   0.138886302292E-02 14 13 10 10
   0.105023934252E-01 14 13 11  7
   0.222736870323E-02 14 13 11  8