 &FCI NORB= 25,NELEC= 6,MS2= 0,
  ORBSYM=4,3,1,1,3,4,1,1,3,4,1,3,4,1,1,3,4,1,1,4,3,2,1,1,1,
  ISYM=3
 &END
  0.876191889749E+00    1    1    1    1
  0.790281870994E+00    1    1    2    2
  0.790281870994E+00    2    2    1    1
  0.784213737943E+00    1    1    3    3
  0.784213737943E+00    3    3    1    1
 -0.760732632304E-02    1    1    4    3
 -0.760732632304E-02    4    3    1    1
 -0.760732632304E-02    1    1    3    4
 -0.760732632304E-02    3    4    1    1
  0.190618740349E+00    1    1    4    4
  0.190618740349E+00    4    4    1    1
 -0.342264442427E-01    1    1    5    2
 -0.342264442427E-01    5    2    1    1
 -0.342264442427E-01    1    1    2    5
 -0.342264442427E-01    2    5    1    1
  0.144240820730E+00    1    1    5    5
  0.144240820730E+00    5    5    1    1
 -0.392250411214E-01    1    1    6    1
 -0.392250411214E-01    6    1    1    1
 -0.392250411214E-01    1    1    1    6
 -0.392250411214E-01    1    6    1    1
  0.146056634432E+00    1    1    6    6
  0.146056634432E+00    6    6    1    1
 -0.108337319559E-01    1    1    7    3
 -0.108337319559E-01    7    3    1    1
 -0.108337319559E-01    1    1    3    7
 -0.108337319559E-01    3    7    1    1
 -0.276273933817E-01    1    1    7    4
 -0.276273933817E-01    7    4    1    1
 -0.276273933817E-01    1    1    4    7
 -0.276273933817E-01    4    7    1    1
  0.156886541653E+00    1    1    7    7
  0.156886541653E+00    7    7    1    1
 -0.104908650366E-01    1    1    8    3
 -0.104908650366E-01    8    3    1    1
 -0.104908650366E-01    1    1    3    8
 -0.104908650366E-01    3    8    1    1
  0.282940966506E-01    1    1    8    4
  0.282940966506E-01    8    4    1    1
  0.282940966506E-01    1    1    4    8
  0.282940966506E-01    4    8    1    1
  0.252631937036E-01    1    1    8    7
  0.252631937036E-01    8    7    1    1
  0.252631937036E-01    1    1    7    8
  0.252631937036E-01    7    8    1    1
  0.162341006219E+00    1    1    8    8
  0.162341006219E+00    8    8    1    1
 -0.623833249325E-01    1    1    9    2
 -0.623833249325E-01    9    2    1    1
 -0.623833249325E-01    1    1    2    9
 -0.623833249325E-01    2    9    1    1
  0.429284468895E-01    1    1    9    5
  0.429284468895E-01    9    5    1    1
  0.429284468895E-01    1    1    5    9
  0.429284468895E-01    5    9    1    1
  0.227886144783E+00    1    1    9    9
  0.227886144783E+00    9    9    1    1
 -0.720889042186E-01    1    1   10    1
 -0.720889042186E-01   10    1    1    1
 -0.720889042186E-01    1    1    1   10
 -0.720889042186E-01    1   10    1    1
  0.446981399744E-01    1    1   10    6
  0.446981399744E-01   10    6    1    1
  0.446981399744E-01    1    1    6   10
  0.446981399744E-01    6   10    1    1
  0.232870558970E+00    1    1   10   10
  0.232870558970E+00   10   10    1    1
 -0.919915381168E-01    1    1   11    3
 -0.919915381168E-01   11    3    1    1
 -0.919915381168E-01    1    1    3   11
 -0.919915381168E-01    3   11    1    1
  0.134672231888E-01    1    1   11    4
  0.134672231888E-01   11    4    1    1
  0.134672231888E-01    1    1    4   11
  0.134672231888E-01    4   11    1    1
  0.207947109986E-01    1    1   11    7
  0.207947109986E-01   11    7    1    1
  0.207947109986E-01    1    1    7   11
  0.207947109986E-01    7   11    1    1
  0.112371243663E-01    1    1   11    8
  0.112371243663E-01   11    8    1    1
  0.112371243663E-01    1    1    8   11
  0.112371243663E-01    8   11    1    1
  0.266649218093E+00    1    1   11   11
  0.266649218093E+00   11   11    1    1
 -0.853619355380E-01    1    1   12    2
 -0.853619355380E-01   12    2    1    1
 -0.853619355380E-01    1    1    2   12
 -0.853619355380E-01    2   12    1    1
  0.307362761259E-01    1    1   12    5
  0.307362761259E-01   12    5    1    1
  0.307362761259E-01    1    1    5   12
  0.307362761259E-01    5   12    1    1
  0.150735076911E-01    1    1   12    9
  0.150735076911E-01   12    9    1    1
  0.150735076911E-01    1    1    9   12
  0.150735076911E-01    9   12    1    1
  0.263292176382E+00    1    1   12   12
  0.263292176382E+00   12   12    1    1
 -0.979652575837E-01    1    1   13    1
 -0.979652575837E-01   13    1    1    1
 -0.979652575837E-01    1    1    1   13
 -0.979652575837E-01    1   13    1    1
  0.331762280886E-01    1    1   13    6
  0.331762280886E-01   13    6    1    1
  0.331762280886E-01    1    1    6   13
  0.331762280886E-01    6   13    1    1
  0.181134657018E-01    1    1   13   10
  0.181134657018E-01   13   10    1    1
  0.181134657018E-01    1    1   10   13
  0.181134657018E-01   10   13    1    1
  0.273483669604E+00    1    1   13   13
  0.273483669604E+00   13   13    1    1
 -0.354983157904E-01    1    1   14    3
 -0.354983157904E-01   14    3    1    1
 -0.354983157904E-01    1    1    3   14
 -0.354983157904E-01    3   14    1    1
  0.510507384788E-01    1    1   14    4
  0.510507384788E-01   14    4    1    1
  0.510507384788E-01    1    1    4   14
  0.510507384788E-01    4   14    1    1
 -0.512694342536E-01    1    1   14    7
 -0.512694342536E-01   14    7    1    1
 -0.512694342536E-01    1    1    7   14
 -0.512694342536E-01    7   14    1    1
 -0.290636481583E-02    1    1   14    8
 -0.290636481583E-02   14    8    1    1
 -0.290636481583E-02    1    1    8   14
 -0.290636481583E-02    8   14    1    1
 -0.269719661607E-02    1    1   14   11
 -0.269719661607E-02   14   11    1    1
 -0.269719661607E-02    1    1   11   14
 -0.269719661607E-02   11   14    1    1
  0.303668591160E+00    1    1   14   14
  0.303668591160E+00   14   14    1    1
 -0.192177659043E+00    1    1   15    3
 -0.192177659043E+00   15    3    1    1
 -0.192177659043E+00    1    1    3   15
 -0.192177659043E+00    3   15    1    1
  0.847513317472E-02    1    1   15    4
  0.847513317472E-02   15    4    1    1
  0.847513317472E-02    1    1    4   15
  0.847513317472E-02    4   15    1    1
  0.599664927205E-02    1    1   15    7
  0.599664927205E-02   15    7    1    1
  0.599664927205E-02    1    1    7   15
  0.599664927205E-02    7   15    1    1
  0.142056727112E-01    1    1   15    8
  0.142056727112E-01   15    8    1    1
  0.142056727112E-01    1    1    8   15
  0.142056727112E-01    8   15    1    1
  0.959854182555E-01    1    1   15   11
  0.959854182555E-01   15   11    1    1
  0.959854182555E-01    1    1   11   15
  0.959854182555E-01   11   15    1    1
  0.352689720082E-01    1    1   15   14
  0.352689720082E-01   15   14    1    1
  0.352689720082E-01    1    1   14   15
  0.352689720082E-01   14   15    1    1
  0.606827267112E+00    1    1   15   15
  0.606827267112E+00   15   15    1    1
 -0.185462246481E+00    1    1   16    2
 -0.185462246481E+00   16    2    1    1
 -0.185462246481E+00    1    1    2   16
 -0.185462246481E+00    2   16    1    1
  0.185290236620E-01    1    1   16    5
  0.185290236620E-01   16    5    1    1
  0.185290236620E-01    1    1    5   16
  0.185290236620E-01    5   16    1    1
  0.604022806572E-01    1    1   16    9
  0.604022806572E-01   16    9    1    1
  0.604022806572E-01    1    1    9   16
  0.604022806572E-01    9   16    1    1
  0.910851046149E-01    1    1   16   12
  0.910851046149E-01   16   12    1    1
  0.910851046149E-01    1    1   12   16
  0.910851046149E-01   12   16    1    1
  0.590851829904E+00    1    1   16   16
  0.590851829904E+00   16   16    1    1
 -0.208698726065E+00    1    1   17    1
 -0.208698726065E+00   17    1    1    1
 -0.208698726065E+00    1    1    1   17
 -0.208698726065E+00    1   17    1    1
  0.214692886502E-01    1    1   17    6
  0.214692886502E-01   17    6    1    1
  0.214692886502E-01    1    1    6   17
  0.214692886502E-01    6   17    1    1
  0.669645015870E-01    1    1   17   10
  0.669645015870E-01   17   10    1    1
  0.669645015870E-01    1    1   10   17
  0.669645015870E-01   10   17    1    1
  0.102040393097E+00    1    1   17   13
  0.102040393097E+00   17   13    1    1
  0.102040393097E+00    1    1   13   17
  0.102040393097E+00   13   17    1    1
  0.642083861691E+00    1    1   17   17
  0.642083861691E+00   17   17    1    1
  0.879908674441E-02    1    1   18    3
  0.879908674441E-02   18    3    1    1
  0.879908674441E-02    1    1    3   18
  0.879908674441E-02    3   18    1    1
  0.228177775191E-01    1    1   18    4
  0.228177775191E-01   18    4    1    1
  0.228177775191E-01    1    1    4   18
  0.228177775191E-01    4   18    1    1
 -0.216241385250E-01    1    1   18    7
 -0.216241385250E-01   18    7    1    1
 -0.216241385250E-01    1    1    7   18
 -0.216241385250E-01    7   18    1    1
 -0.674414409389E-02    1    1   18    8
 -0.674414409389E-02   18    8    1    1
 -0.674414409389E-02    1    1    8   18
 -0.674414409389E-02    8   18    1    1
 -0.178615279033E-01    1    1   18   11
 -0.178615279033E-01   18   11    1    1
 -0.178615279033E-01    1    1   11   18
 -0.178615279033E-01   11   18    1    1
  0.122030717638E+00    1    1   18   14
  0.122030717638E+00   18   14    1    1
  0.122030717638E+00    1    1   14   18
  0.122030717638E+00   14   18    1    1
  0.997051698330E-03    1    1   18   15
  0.997051698330E-03   18   15    1    1
  0.997051698330E-03    1    1   15   18
  0.997051698330E-03   15   18    1    1
  0.668424656471E+00    1    1   18   18
  0.668424656471E+00   18   18    1    1
  0.395575043650E-02    1    1   19    3
  0.395575043650E-02   19    3    1    1
  0.395575043650E-02    1    1    3   19
  0.395575043650E-02    3   19    1    1
  0.754466206161E-04    1    1   19    4
  0.754466206161E-04   19    4    1    1
  0.754466206161E-04    1    1    4   19
  0.754466206161E-04    4   19    1    1
  0.653775451976E-02    1    1   19    7
  0.653775451976E-02   19    7    1    1
  0.653775451976E-02    1    1    7   19
  0.653775451976E-02    7   19    1    1
  0.575435716667E-02    1    1   19    8
  0.575435716667E-02   19    8    1    1
  0.575435716667E-02    1    1    8   19
  0.575435716667E-02    8   19    1    1
 -0.100384496534E-01    1    1   19   11
 -0.100384496534E-01   19   11    1    1
 -0.100384496534E-01    1    1   11   19
 -0.100384496534E-01   11   19    1    1
  0.215061392941E-01    1    1   19   14
  0.215061392941E-01   19   14    1    1
  0.215061392941E-01    1    1   14   19
  0.215061392941E-01   14   19    1    1
 -0.261004322430E-02    1    1   19   15
 -0.261004322430E-02   19   15    1    1
 -0.261004322430E-02    1    1   15   19
 -0.261004322430E-02   15   19    1    1
 -0.633631087437E-02    1    1   19   18
 -0.633631087437E-02   19   18    1    1
 -0.633631087437E-02    1    1   18   19
 -0.633631087437E-02   18   19    1    1
  0.770294764802E+00    1    1   19   19
  0.770294764802E+00   19   19    1    1
  0.292472410045E-02    1    1   20    1
  0.292472410045E-02   20    1    1    1
  0.292472410045E-02    1    1    1   20
  0.292472410045E-02    1   20    1    1
  0.313604528667E-02    1    1   20    6
  0.313604528667E-02   20    6    1    1
  0.313604528667E-02    1    1    6   20
  0.313604528667E-02    6   20    1    1
  0.229275439239E-01    1    1   20   10
  0.229275439239E-01   20   10    1    1
  0.229275439239E-01    1    1   10   20
  0.229275439239E-01   10   20    1    1
 -0.135950544155E-01    1    1   20   13
 -0.135950544155E-01   20   13    1    1
 -0.135950544155E-01    1    1   13   20
 -0.135950544155E-01   13   20    1    1
  0.151192710232E-02    1    1   20   17
  0.151192710232E-02   20   17    1    1
  0.151192710232E-02    1    1   17   20
  0.151192710232E-02   17   20    1    1
  0.832527249571E+00    1    1   20   20
  0.832527249571E+00   20   20    1    1
  0.231597927594E-02    1    1   21    2
  0.231597927594E-02   21    2    1    1
  0.231597927594E-02    1    1    2   21
  0.231597927594E-02    2   21    1    1
  0.277998122910E-02    1    1   21    5
  0.277998122910E-02   21    5    1    1
  0.277998122910E-02    1    1    5   21
  0.277998122910E-02    5   21    1    1
  0.206609564572E-01    1    1   21    9
  0.206609564572E-01   21    9    1    1
  0.206609564572E-01    1    1    9   21
  0.206609564572E-01    9   21    1    1
 -0.121936144969E-01    1    1   21   12
 -0.121936144969E-01   21   12    1    1
 -0.121936144969E-01    1    1   12   21
 -0.121936144969E-01   12   21    1    1
  0.137310357849E-02    1    1   21   16
  0.137310357849E-02   21   16    1    1
  0.137310357849E-02    1    1   16   21
  0.137310357849E-02   16   21    1    1
  0.765338056093E+00    1    1   21   21
  0.765338056093E+00   21   21    1    1
  0.833571456921E+00    1    1   22   22
  0.833571456921E+00   22   22    1    1
  0.259875441344E-02    1    1   23    3
  0.259875441344E-02   23    3    1    1
  0.259875441344E-02    1    1    3   23
  0.259875441344E-02    3   23    1    1
  0.242254628670E-02    1    1   23    4
  0.242254628670E-02   23    4    1    1
  0.242254628670E-02    1    1    4   23
  0.242254628670E-02    4   23    1    1
 -0.212870989840E-02    1    1   23    7
 -0.212870989840E-02   23    7    1    1
 -0.212870989840E-02    1    1    7   23
 -0.212870989840E-02    7   23    1    1
 -0.327486734072E-03    1    1   23    8
 -0.327486734072E-03   23    8    1    1
 -0.327486734072E-03    1    1    8   23
 -0.327486734072E-03    8   23    1    1
 -0.212463230231E-02    1    1   23   11
 -0.212463230231E-02   23   11    1    1
 -0.212463230231E-02    1    1   11   23
 -0.212463230231E-02   11   23    1    1
  0.958626517900E-02    1    1   23   14
  0.958626517900E-02   23   14    1    1
  0.958626517900E-02    1    1   14   23
  0.958626517900E-02   14   23    1    1
 -0.305716525649E-03    1    1   23   15
 -0.305716525649E-03   23   15    1    1
 -0.305716525649E-03    1    1   15   23
 -0.305716525649E-03   15   23    1    1
  0.289736820541E-02    1    1   23   18
  0.289736820541E-02   23   18    1    1
  0.289736820541E-02    1    1   18   23
  0.289736820541E-02   18   23    1    1
  0.381480058245E-01    1    1   23   19
  0.381480058245E-01   23   19    1    1
  0.381480058245E-01    1    1   19   23
  0.381480058245E-01   19   23    1    1
  0.833571456921E+00    1    1   23   23
  0.833571456921E+00   23   23    1    1
  0.562808406218E-02    1    1   24    3
  0.562808406218E-02   24    3    1    1
  0.562808406218E-02    1    1    3   24
  0.562808406218E-02    3   24    1    1
  0.321260712380E-02    1    1   24    4
  0.321260712380E-02   24    4    1    1
  0.321260712380E-02    1    1    4   24
  0.321260712380E-02    4   24    1    1
  0.221581115465E-02    1    1   24    7
  0.221581115465E-02   24    7    1    1
  0.221581115465E-02    1    1    7   24
  0.221581115465E-02    7   24    1    1
  0.160990990353E-01    1    1   24    8
  0.160990990353E-01   24    8    1    1
  0.160990990353E-01    1    1    8   24
  0.160990990353E-01    8   24    1    1
 -0.594381453447E-02    1    1   24   11
 -0.594381453447E-02   24   11    1    1
 -0.594381453447E-02    1    1   11   24
 -0.594381453447E-02   11   24    1    1
 -0.330724177558E-02    1    1   24   14
 -0.330724177558E-02   24   14    1    1
 -0.330724177558E-02    1    1   14   24
 -0.330724177558E-02   14   24    1    1
 -0.246294210937E-01    1    1   24   15
 -0.246294210937E-01   24   15    1    1
 -0.246294210937E-01    1    1   15   24
 -0.246294210937E-01   15   24    1    1
 -0.200202856700E-01    1    1   24   18
 -0.200202856700E-01   24   18    1    1
 -0.200202856700E-01    1    1   18   24
 -0.200202856700E-01   18   24    1    1
 -0.904003756025E-01    1    1   24   19
 -0.904003756025E-01   24   19    1    1
 -0.904003756025E-01    1    1   19   24
 -0.904003756025E-01   19   24    1    1
 -0.713459783440E-02    1    1   24   23
 -0.713459783440E-02   24   23    1    1
 -0.713459783440E-02    1    1   23   24
 -0.713459783440E-02   23   24    1    1
  0.331861160053E+00    1    1   24   24
  0.331861160053E+00   24   24    1    1
 -0.192481643347E-02    1    1   25    3
 -0.192481643347E-02   25    3    1    1
 -0.192481643347E-02    1    1    3   25
 -0.192481643347E-02    3   25    1    1
 -0.183153229949E-02    1    1   25    4
 -0.183153229949E-02   25    4    1    1
 -0.183153229949E-02    1    1    4   25
 -0.183153229949E-02    4   25    1    1
  0.210618831398E-02    1    1   25    7
  0.210618831398E-02   25    7    1    1
  0.210618831398E-02    1    1    7   25
  0.210618831398E-02    7   25    1    1
  0.296789600209E-04    1    1   25    8
  0.296789600209E-04   25    8    1    1
  0.296789600209E-04    1    1    8   25
  0.296789600209E-04    8   25    1    1
  0.117835468300E-02    1    1   25   11
  0.117835468300E-02   25   11    1    1
  0.117835468300E-02    1    1   11   25
  0.117835468300E-02   11   25    1    1
 -0.987241592432E-03    1    1   25   14
 -0.987241592432E-03   25   14    1    1
 -0.987241592432E-03    1    1   14   25
 -0.987241592432E-03   14   25    1    1
 -0.380051931173E-04    1    1   25   15
 -0.380051931173E-04   25   15    1    1
 -0.380051931173E-04    1    1   15   25
 -0.380051931173E-04   15   25    1    1
 -0.684999828188E-01    1    1   25   18
 -0.684999828188E-01   25   18    1    1
 -0.684999828188E-01    1    1   18   25
 -0.684999828188E-01   18   25    1    1
  0.367484335593E-02    1    1   25   19
  0.367484335593E-02   25   19    1    1
  0.367484335593E-02    1    1   19   25
  0.367484335593E-02   19   25    1    1
  0.897250524099E-02    1    1   25   23
  0.897250524099E-02   25   23    1    1
  0.897250524099E-02    1    1   23   25
  0.897250524099E-02   23   25    1    1
  0.280427960654E-02    1    1   25   24
  0.280427960654E-02   25   24    1    1
  0.280427960654E-02    1    1   24   25
  0.280427960654E-02   24   25    1    1
  0.118669900258E+01    1    1   25   25
  0.118669900258E+01   25   25    1    1
  0.429550093775E-01    2    1    2    1
  0.429550093775E-01    1    2    2    1
  0.429550093775E-01    2    1    1    2
  0.429550093775E-01    1    2    1    2
 -0.249929843934E-02    2    1    5    1
 -0.249929843934E-02    5    1    2    1
 -0.249929843934E-02    1    2    5    1
 -0.249929843934E-02    5    1    1    2
 -0.249929843934E-02    2    1    1    5
 -0.249929843934E-02    1    5    2    1
 -0.249929843934E-02    1    2    1    5
 -0.249929843934E-02    1    5    1    2
 -0.249929843934E-02    2    1    6    2
 -0.249929843934E-02    6    2    2    1
 -0.249929843934E-02    1    2    6    2
 -0.249929843934E-02    6    2    1    2
 -0.249929843934E-02    2    1    2    6
 -0.249929843934E-02    2    6    2    1
 -0.249929843934E-02    1    2    2    6
 -0.249929843934E-02    2    6    1    2
  0.907906851285E-03    2    1    6    5
  0.907906851285E-03    6    5    2    1
  0.907906851285E-03    1    2    6    5
  0.907906851285E-03    6    5    1    2
  0.907906851285E-03    2    1    5    6
  0.907906851285E-03    5    6    2    1
  0.907906851285E-03    1    2    5    6
  0.907906851285E-03    5    6    1    2
 -0.485278964307E-02    2    1    9    1
 -0.485278964307E-02    9    1    2    1
 -0.485278964307E-02    1    2    9    1
 -0.485278964307E-02    9    1    1    2
 -0.485278964307E-02    2    1    1    9
 -0.485278964307E-02    1    9    2    1
 -0.485278964307E-02    1    2    1    9
 -0.485278964307E-02    1    9    1    2
  0.884846542470E-03    2    1    9    6
  0.884846542470E-03    9    6    2    1
  0.884846542470E-03    1    2    9    6
  0.884846542470E-03    9    6    1    2
  0.884846542470E-03    2    1    6    9
  0.884846542470E-03    6    9    2    1
  0.884846542470E-03    1    2    6    9
  0.884846542470E-03    6    9    1    2
 -0.485278964307E-02    2    1   10    2
 -0.485278964307E-02   10    2    2    1
 -0.485278964307E-02    1    2   10    2
 -0.485278964307E-02   10    2    1    2
 -0.485278964307E-02    2    1    2   10
 -0.485278964307E-02    2   10    2    1
 -0.485278964307E-02    1    2    2   10
 -0.485278964307E-02    2   10    1    2
  0.884846542470E-03    2    1   10    5
  0.884846542470E-03   10    5    2    1
  0.884846542470E-03    1    2   10    5
  0.884846542470E-03   10    5    1    2
  0.884846542470E-03    2    1    5   10
  0.884846542470E-03    5   10    2    1
  0.884846542470E-03    1    2    5   10
  0.884846542470E-03    5   10    1    2
  0.249220709371E-02    2    1   10    9
  0.249220709371E-02   10    9    2    1
  0.249220709371E-02    1    2   10    9
  0.249220709371E-02   10    9    1    2
  0.249220709371E-02    2    1    9   10
  0.249220709371E-02    9   10    2    1
  0.249220709371E-02    1    2    9   10
  0.249220709371E-02    9   10    1    2
 -0.630166102287E-02    2    1   12    1
 -0.630166102287E-02   12    1    2    1
 -0.630166102287E-02    1    2   12    1
 -0.630166102287E-02   12    1    1    2
 -0.630166102287E-02    2    1    1   12
 -0.630166102287E-02    1   12    2    1
 -0.630166102287E-02    1    2    1   12
 -0.630166102287E-02    1   12    1    2
  0.121997598137E-02    2    1   12    6
  0.121997598137E-02   12    6    2    1
  0.121997598137E-02    1    2   12    6
  0.121997598137E-02   12    6    1    2
  0.121997598137E-02    2    1    6   12
  0.121997598137E-02    6   12    2    1
  0.121997598137E-02    1    2    6   12
  0.121997598137E-02    6   12    1    2
  0.151997900535E-02    2    1   12   10
  0.151997900535E-02   12   10    2    1
  0.151997900535E-02    1    2   12   10
  0.151997900535E-02   12   10    1    2
  0.151997900535E-02    2    1   10   12
  0.151997900535E-02   10   12    2    1
  0.151997900535E-02    1    2   10   12
  0.151997900535E-02   10   12    1    2
 -0.630166102287E-02    2    1   13    2
 -0.630166102287E-02   13    2    2    1
 -0.630166102287E-02    1    2   13    2
 -0.630166102287E-02   13    2    1    2
 -0.630166102287E-02    2    1    2   13
 -0.630166102287E-02    2   13    2    1
 -0.630166102287E-02    1    2    2   13
 -0.630166102287E-02    2   13    1    2
  0.121997598137E-02    2    1   13    5
  0.121997598137E-02   13    5    2    1
  0.121997598137E-02    1    2   13    5
  0.121997598137E-02   13    5    1    2
  0.121997598137E-02    2    1    5   13
  0.121997598137E-02    5   13    2    1
  0.121997598137E-02    1    2    5   13
  0.121997598137E-02    5   13    1    2
  0.151997900535E-02    2    1   13    9
  0.151997900535E-02   13    9    2    1
  0.151997900535E-02    1    2   13    9
  0.151997900535E-02   13    9    1    2
  0.151997900535E-02    2    1    9   13
  0.151997900535E-02    9   13    2    1
  0.151997900535E-02    1    2    9   13
  0.151997900535E-02    9   13    1    2
  0.509574661082E-02    2    1   13   12
  0.509574661082E-02   13   12    2    1
  0.509574661082E-02    1    2   13   12
  0.509574661082E-02   13   12    1    2
  0.509574661082E-02    2    1   12   13
  0.509574661082E-02   12   13    2    1
  0.509574661082E-02    1    2   12   13
  0.509574661082E-02   12   13    1    2
 -0.116182397919E-01    2    1   16    1
 -0.116182397919E-01   16    1    2    1
 -0.116182397919E-01    1    2   16    1
 -0.116182397919E-01   16    1    1    2
 -0.116182397919E-01    2    1    1   16
 -0.116182397919E-01    1   16    2    1
 -0.116182397919E-01    1    2    1   16
 -0.116182397919E-01    1   16    1    2
  0.147013249408E-02    2    1   16    6
  0.147013249408E-02   16    6    2    1
  0.147013249408E-02    1    2   16    6
  0.147013249408E-02   16    6    1    2
  0.147013249408E-02    2    1    6   16
  0.147013249408E-02    6   16    2    1
  0.147013249408E-02    1    2    6   16
  0.147013249408E-02    6   16    1    2
  0.328111046488E-02    2    1   16   10
  0.328111046488E-02   16   10    2    1
  0.328111046488E-02    1    2   16   10
  0.328111046488E-02   16   10    1    2
  0.328111046488E-02    2    1   10   16
  0.328111046488E-02   10   16    2    1
  0.328111046488E-02    1    2   10   16
  0.328111046488E-02   10   16    1    2
  0.547764424083E-02    2    1   16   13
  0.547764424083E-02   16   13    2    1
  0.547764424083E-02    1    2   16   13
  0.547764424083E-02   16   13    1    2
  0.547764424083E-02    2    1   13   16
  0.547764424083E-02   13   16    2    1
  0.547764424083E-02    1    2   13   16
  0.547764424083E-02   13   16    1    2
 -0.116182397919E-01    2    1   17    2
 -0.116182397919E-01   17    2    2    1
 -0.116182397919E-01    1    2   17    2
 -0.116182397919E-01   17    2    1    2
 -0.116182397919E-01    2    1    2   17
 -0.116182397919E-01    2   17    2    1
 -0.116182397919E-01    1    2    2   17
 -0.116182397919E-01    2   17    1    2
  0.147013249408E-02    2    1   17    5
  0.147013249408E-02   17    5    2    1
  0.147013249408E-02    1    2   17    5
  0.147013249408E-02   17    5    1    2
  0.147013249408E-02    2    1    5   17
  0.147013249408E-02    5   17    2    1
  0.147013249408E-02    1    2    5   17
  0.147013249408E-02    5   17    1    2
  0.328111046488E-02    2    1   17    9
  0.328111046488E-02   17    9    2    1
  0.328111046488E-02    1    2   17    9
  0.328111046488E-02   17    9    1    2
  0.328111046488E-02    2    1    9   17
  0.328111046488E-02    9   17    2    1
  0.328111046488E-02    1    2    9   17
  0.328111046488E-02    9   17    1    2
  0.547764424083E-02    2    1   17   12
  0.547764424083E-02   17   12    2    1
  0.547764424083E-02    1    2   17   12
  0.547764424083E-02   17   12    1    2
  0.547764424083E-02    2    1   12   17
  0.547764424083E-02   12   17    2    1
  0.547764424083E-02    1    2   12   17
  0.547764424083E-02   12   17    1    2
  0.256160158937E-01    2    1   17   16
  0.256160158937E-01   17   16    2    1
  0.256160158937E-01    1    2   17   16
  0.256160158937E-01   17   16    1    2
  0.256160158937E-01    2    1   16   17
  0.256160158937E-01   16   17    2    1
  0.256160158937E-01    1    2   16   17
  0.256160158937E-01   16   17    1    2
  0.304372412255E-03    2    1   20    2
  0.304372412255E-03   20    2    2    1
  0.304372412255E-03    1    2   20    2
  0.304372412255E-03   20    2    1    2
  0.304372412255E-03    2    1    2   20
  0.304372412255E-03    2   20    2    1
  0.304372412255E-03    1    2    2   20
  0.304372412255E-03    2   20    1    2
  0.178032028781E-03    2    1   20    5
  0.178032028781E-03   20    5    2    1
  0.178032028781E-03    1    2   20    5
  0.178032028781E-03   20    5    1    2
  0.178032028781E-03    2    1    5   20
  0.178032028781E-03    5   20    2    1
  0.178032028781E-03    1    2    5   20
  0.178032028781E-03    5   20    1    2
  0.113329373332E-02    2    1   20    9
  0.113329373332E-02   20    9    2    1
  0.113329373332E-02    1    2   20    9
  0.113329373332E-02   20    9    1    2
  0.113329373332E-02    2    1    9   20
  0.113329373332E-02    9   20    2    1
  0.113329373332E-02    1    2    9   20
  0.113329373332E-02    9   20    1    2
 -0.700719959280E-03    2    1   20   12
 -0.700719959280E-03   20   12    2    1
 -0.700719959280E-03    1    2   20   12
 -0.700719959280E-03   20   12    1    2
 -0.700719959280E-03    2    1   12   20
 -0.700719959280E-03   12   20    2    1
 -0.700719959280E-03    1    2   12   20
 -0.700719959280E-03   12   20    1    2
  0.694117619142E-04    2    1   20   16
  0.694117619142E-04   20   16    2    1
  0.694117619142E-04    1    2   20   16
  0.694117619142E-04   20   16    1    2
  0.694117619142E-04    2    1   16   20
  0.694117619142E-04   16   20    2    1
  0.694117619142E-04    1    2   16   20
  0.694117619142E-04   16   20    1    2
  0.304372412255E-03    2    1   21    1
  0.304372412255E-03   21    1    2    1
  0.304372412255E-03    1    2   21    1
  0.304372412255E-03   21    1    1    2
  0.304372412255E-03    2    1    1   21
  0.304372412255E-03    1   21    2    1
  0.304372412255E-03    1    2    1   21
  0.304372412255E-03    1   21    1    2
  0.178032028781E-03    2    1   21    6
  0.178032028781E-03   21    6    2    1
  0.178032028781E-03    1    2   21    6
  0.178032028781E-03   21    6    1    2
  0.178032028781E-03    2    1    6   21
  0.178032028781E-03    6   21    2    1
  0.178032028781E-03    1    2    6   21
  0.178032028781E-03    6   21    1    2
  0.113329373332E-02    2    1   21   10
  0.113329373332E-02   21   10    2    1
  0.113329373332E-02    1    2   21   10
  0.113329373332E-02   21   10    1    2
  0.113329373332E-02    2    1   10   21
  0.113329373332E-02   10   21    2    1
  0.113329373332E-02    1    2   10   21
  0.113329373332E-02   10   21    1    2
 -0.700719959280E-03    2    1   21   13
 -0.700719959280E-03   21   13    2    1
 -0.700719959280E-03    1    2   21   13
 -0.700719959280E-03   21   13    1    2
 -0.700719959280E-03    2    1   13   21
 -0.700719959280E-03   13   21    2    1
 -0.700719959280E-03    1    2   13   21
 -0.700719959280E-03   13   21    1    2
  0.694117619142E-04    2    1   21   17
  0.694117619142E-04   21   17    2    1
  0.694117619142E-04    1    2   21   17
  0.694117619142E-04   21   17    1    2
  0.694117619142E-04    2    1   17   21
  0.694117619142E-04   17   21    2    1
  0.694117619142E-04    1    2   17   21
  0.694117619142E-04   17   21    1    2
  0.335945967394E-01    2    1   21   20
  0.335945967394E-01   21   20    2    1
  0.335945967394E-01    1    2   21   20
  0.335945967394E-01   21   20    1    2
  0.335945967394E-01    2    1   20   21
  0.335945967394E-01   20   21    2    1
  0.335945967394E-01    1    2   20   21
  0.335945967394E-01   20   21    1    2
 -0.259875441344E-02    2    1   22    3
 -0.259875441344E-02   22    3    2    1
 -0.259875441344E-02    1    2   22    3
 -0.259875441344E-02   22    3    1    2
 -0.259875441344E-02    2    1    3   22
 -0.259875441344E-02    3   22    2    1
 -0.259875441344E-02    1    2    3   22
 -0.259875441344E-02    3   22    1    2
 -0.242254628670E-02    2    1   22    4
 -0.242254628670E-02   22    4    2    1
 -0.242254628670E-02    1    2   22    4
 -0.242254628670E-02   22    4    1    2