 &FCI NORB=  10,NELEC=14,MS2=0,
  ORBSYM=1,5,1,5,3,2,1,6,7,5
  ISYM=1,
 &END
 2.287817824141573    1    1    1    1
 1.845525805785881    2    1    2    1
 2.286751032351095    2    2    1    1
 2.285686855875741    2    2    2    2
 -0.1876927719796786    3    1    1    1
 -0.1874733020483805    3    1    2    2
 0.02893679504751396    3    1    3    1
 -0.1923251785302446    3    2    2    1
 0.02875302418749202    3    2    3    2
 0.749590740148902    3    3    1    1
 0.7497085075622772    3    3    2    2
 0.0002756749864023588    3    3    3    1
 0.7074739002364722    3    3    3    3
 -0.1902200246357704    4    1    2    1
 0.02638325170202721    4    1    3    2
 0.02975510686222814    4    1    4    1
 -0.1953574352346913    4    2    1    1
 -0.195226473533682    4    2    2    2
 0.02628069518816005    4    2    3    1
 -0.0159159485446327    4    2    3    3
 0.02984760567420366    4    2    4    2
 0.1949796972249628    4    3    2    1
 -0.008071695101200434    4    3    3    2
 -0.005405639093766606    4    3    4    1
 0.07122740801090563    4    3    4    3
 0.6598914075673343    4    4    1    1
 0.6597879258785808    4    4    2    2
 -0.01174729420401202    4    4    3    1
 0.5036261607256403    4    4    3    3
 -0.005827675356649561    4    4    4    2
 0.534468112209158    4    4    4    4
 0.009816159818323131    5    1    5    1
 0.009465956315691148    5    2    5    2
 0.0158300142943776    5    3    5    1
 0.0986185461643731    5    3    5    3
 0.01189891619950993    5    4    5    2
 0.05410943754987352    5    4    5    4
 0.672728090567263    5    5    1    1
 0.6727726614809898    5    5    2    2
 -0.002304426929514727    5    5    3    1
 0.5937795946736084    5    5    3    3
 -0.007216445284425371    5    5    4    2
 0.5040406087324929    5    5    4    4
 0.5726096861254824    5    5    5    5
 0.009816159818323131    6    1    6    1
 0.009465956315691148    6    2    6    2
 0.0158300142943776    6    3    6    1
 0.0986185461643731    6    3    6    3
 0.01189891619950993    6    4    6    2
 0.05410943754987352    6    4    6    4
 0.02286498387963505    6    5    6    5
 0.672728090567263    6    6    1    1
 0.6727726614809898    6    6    2    2
 -0.002304426929514727    6    6    3    1
 0.5937795946736084    6    6    3    3
 -0.007216445284425371    6    6    4    2
 0.5040406087324929    6    6    4    4
 0.5268797183662123    6    6    5    5
 0.5726096861254824    6    6    6    6
 0.08225642650820868    7    1    1    1
 0.08230205925012472    7    1    2    2
 -0.007042158091698231    7    1    3    1
 0.02263763103300998    7    1    3    3
 -0.01494036314224274    7    1    4    2
 -0.00357546449390158    7    1    4    4
 0.008051688262716038    7    1    5    5
 0.008051688262716038    7    1    6    6
 0.01393652571968749    7    1    7    1
 0.0698911614476576    7    2    2    1
 -0.007337081953135443    7    2    3    2
 -0.01465852597622998    7    2    4    1
 -0.000561638287007224    7    2    4    3
 0.01320582401626397    7    2    7    2
 0.05605613698451689    7    3    1    1
 0.05616412159498663    7    3    2    2
 0.006721990634642276    7    3    3    1
 0.1073208581845696    7    3    3    3
 -0.004051711526891726    7    3    4    2
 -0.004089112115359835    7    3    4    4
 0.04536236983880246    7    3    5    5
 0.04536236983880246    7    3    6    6
 0.01242714150038516    7    3    7    1
 0.05803716608196613    7    3    7    3
 -0.2471543014766981    7    4    2    1
 0.01205269169074627    7    4    3    2
 -0.001370120213881118    7    4    4    1
 -0.1016515980607631    7    4    4    3
 0.01407340770234891    7    4    7    2
 0.2096750787216178    7    4    7    4
 -0.004726988701314791    7    5    5    1
 -0.01224229241310406    7    5    5    3
 0.02760971657999475    7    5    7    5
 -0.004726988701314791    7    6    6    1
 -0.01224229241310406    7    6    6    3
 0.02760971657999475    7    6    7    6
 0.6736558986508111    7    7    1    1
 0.6735696612012294    7    7    2    2
 -0.00826234141796504    7    7    3    1
 0.5333347858030016    7    7    3    3
 -0.004054968659971242    7    7    4    2
 0.5455517228159504    7    7    4    4
 0.510576414401907    7    7    5    5
 0.510576414401907    7    7    6    6
 -0.002624352231127538    7    7    7    1
 0.01390435895007879    7    7    7    3
 0.5755372475120627    7    7    7    7
 0.01121302880207362    8    1    6    2
 0.01381238055008672    8    1    6    4
 0.01329335370080016    8    1    8    1
 0.01165764666737461    8    2    6    1
 0.01789927389562949    8    2    6    3
 -0.00584094284099216    8    2    7    6
 0.01386079846748438    8    2    8    2
 0.01183808271383136    8    3    6    2
 0.04664913088044727    8    3    6    4
 0.01358618108426035    8    3    8    1
 0.0473151698601246    8    3    8    3
 0.01563047980359541    8    4    6    1
 0.07460219133523945    8    4    6    3
 -0.03491164299046967    8    4    7    6
 0.01822272040267565    8    4    8    2
 0.08241298644820208    8    4    8    4
 0.01923118712070376    8    5    8    5
 0.2872365476265332    8    6    2    1
 -0.007819924332265853    8    6    3    2
 -0.003422272337804028    8    6    4    1
 0.1113185163992981    8    6    4    3
 -0.002949180047832004    8    6    7    2
 -0.1547639411111864    8    6    7    4
 0.1967497242602955    8    6    8    6
 -0.006687181192709532    8    7    6    2
 -0.03757670775655557    8    7    6    4
 -0.007944947438038884    8    7    8    1
 -0.02431749604656801    8    7    8    3
 0.03533483702271639    8    7    8    7
 0.7099654765191609    8    8    1    1
 0.7099817300087227    8    8    2    2
 -0.005704576119950223    8    8    3    1
 0.5778318269685074    8    8    3    3
 -0.007530481721517639    8    8    4    2
 0.5266494860708033    8    8    4    4
 0.5298580800723408    8    8    5    5
 0.5747122764624828    8    8    6    6
 0.005215962659127557    8    8    7    1
 0.02812008239204798    8    8    7    3
 0.5297399885235228    8    8    7    7
 0.5910687158835176    8    8    8    8
 0.01121302880207362    9    1    5    2
 0.01381238055008672    9    1    5    4
 0.01329335370080016    9    1    9    1
 0.01165764666737461    9    2    5    1
 0.01789927389562949    9    2    5    3
 -0.00584094284099216    9    2    7    5
 0.01386079846748438    9    2    9    2
 0.01183808271383136    9    3    5    2
 0.04664913088044727    9    3    5    4
 0.01358618108426035    9    3    9    1
 0.0473151698601246    9    3    9    3
 0.01563047980359541    9    4    5    1
 0.07460219133523945    9    4    5    3
 -0.03491164299046967    9    4    7    5
 0.01822272040267565    9    4    9    2
 0.08241298644820208    9    4    9    4
 0.2872365476265332    9    5    2    1
 -0.007819924332265853    9    5    3    2
 -0.003422272337804028    9    5    4    1
 0.1113185163992981    9    5    4    3
 -0.002949180047832004    9    5    7    2
 -0.1547639411111864    9    5    7    4
 0.1582873500188877    9    5    8    6
 0.1967497242602955    9    5    9    5
 0.01923118712070376    9    6    8    5
 0.01923118712070376    9    6    9    6
 -0.006687181192709532    9    7    5    2
 -0.03757670775655557    9    7    5    4
 -0.007944947438038884    9    7    9    1
 -0.02431749604656801    9    7    9    3
 0.03533483702271639    9    7    9    7
 0.02242709819507099    9    8    6    5
 0.02445349188644345    9    8    9    8
 0.7099654765191609    9    9    1    1
 0.7099817300087227    9    9    2    2
 -0.005704576119950222    9    9    3    1
 0.5778318269685074    9    9    3    3
 -0.007530481721517639    9    9    4    2
 0.5266494860708032    9    9    4    4
 0.5747122764624828    9    9    5    5
 0.5298580800723408    9    9    6    6
 0.005215962659127557    9    9    7    1
 0.02812008239204795    9    9    7    3
 0.5297399885235228    9    9    7    7
 0.5421617321106307    9    9    8    8
 0.5910687158835175    9    9    9    9
 -0.1397177553439605   10    1    2    1
 0.02461943164919627   10    1    3    2
 0.01474613533999226   10    1    4    1
 -0.00817394531647467   10    1    4    3
 0.004959341253837986   10    1    7    2
 0.02483248316369975   10    1    7    4
 -0.009172905875647456   10    1    8    6
 -0.009172905875647456   10    1    9    5
 0.03237132308575762   10    1   10    1
 -0.123653428797661   10    2    1    1
 -0.1233621763359416   10    2    2    2
 0.02491770097102106   10    2    3    1
 0.01958550543065552   10    2    3    3
 0.01434747218050222   10    2    4    2
 -0.01490356134267096   10    2    4    4
 0.005361243545940662   10    2    5    5
 0.005361243545940662   10    2    6    6
 0.005834422997902851   10    2    7    1
 0.01718812280181953   10    2    7    3
 -0.01114287583236252   10    2    7    7
 -3.838273974930047e-05   10    2    8    8
 -3.838273974930047e-05   10    2    9    9
 0.03327166026796029   10    2   10    2
 0.2149433708949327   10    3    2    1
 -0.003713370010352869   10    3    3    2
 -0.01096741018075195   10    3    4    1
 0.06315767640534448   10    3    4    3
 0.01180500111982092   10    3    7    2
 -0.0448175826116733   10    3    7    4
 0.09968383106621466   10    3    8    6
 0.09968383106621466   10    3    9    5
 0.007823175309321835   10    3   10    1
 0.10485453018116   10    3   10    3
 0.05454007781388173   10    4    1    1
 0.05464269131167636   10    4    2    2
 0.002363140288849621   10    4    3    1
 0.07684205755825281   10    4    3    3
 -0.007419771551357701   10    4    4    2
 -0.01634439902096533   10    4    4    4
 0.04287022221535837   10    4    5    5
 0.04287022221535837   10    4    6    6
 0.0129334185405385   10    4    7    1
 0.03737260030215416   10    4    7    3
 -0.02352263182720733   10    4    7    7
 0.03100469960982873   10    4    8    8
 0.03100469960982873   10    4    9    9
 0.01425376476253213   10    4   10    2
 0.05131942513671769   10    4   10    4
 0.007985534441589559   10    5    5    2
 0.02278239868647928   10    5    5    4
 0.00898370977197782   10    5    9    1
 0.03265591366402577   10    5    9    3
 -0.0009893949653109761   10    5    9    7
 0.03354914825243582   10    5   10    5
 0.007985534441589559   10    6    6    2
 0.02278239868647928   10    6    6    4
 0.00898370977197782   10    6    8    1
 0.03265591366402577   10    6    8    3
 -0.0009893949653109761   10    6    8    7
 0.03354914825243582   10    6   10    6
 0.2095394423529109   10    7    2    1
 -0.006062526743721097   10    7    3    2
 -0.002153123059312416   10    7    4    1
 0.06987433994628328   10    7    4    3
 -0.002930326276609814   10    7    7    2
 -0.1277611035134521   10    7    7    4
 0.1048864983155789   10    7    8    6
 0.1048864983155789   10    7    9    5
 -0.008704212068529844   10    7   10    1
 0.06210623220809342   10    7   10    3
 0.1041225698830456   10    7   10    7
 0.00996596842568714   10    8    6    1
 0.0557814806716836   10    8    6    3
 0.003987392253831518   10    8    7    6
 0.01123507414653248   10    8    8    2
 0.03315626285728462   10    8    8    4
 0.04346967942335452   10    8   10    8
 0.00996596842568714   10    9    5    1
 0.0557814806716836   10    9    5    3
 0.003987392253831517   10    9    7    5
 0.01123507414653248   10    9    9    2
 0.03315626285728462   10    9    9    4
 0.04346967942335452   10    9   10    9
 0.8614568690319718   10   10    1    1
 0.8615533226493607   10   10    2    2
 -0.005310782759396801   10   10    3    1
 0.6967463775180359   10   10    3    3
 -0.01915450682217779   10   10    4    2
 0.5489373995922386   10   10    4    4
 0.6023591021922172   10   10    5    5
 0.6023591021922172   10   10    6    6
 0.02184480575973823   10   10    7    1
 0.08823802266267013   10   10    7    3
 0.5848622771564314   10   10    7    7
 0.6043380727182732   10   10    8    8
 0.6043380727182732   10   10    9    9
 0.01430593079523475   10   10   10    2
 0.05239495116748383   10   10   10    4
 0.7410981314134073   10   10   10   10
 -27.26894236768113    1    1  0  0
 -27.26769724875566    2    2  0  0
 0.4579570325172204    3    1  0  0
 -6.231126725708691e-15    3    2  0  0
 -9.120331737536599    3    3  0  0
 0.5001561552710088    4    2  0  0
 2.109423746787797e-15    4    3  0  0
 -7.576648374397404    4    4  0  0
 -7.819021789501349    5    5  0  0
 -7.819021789501349    6    6  0  0
 -0.2487782244405811    7    1  0  0
 -8.007483565108942e-15    7    2  0  0
 -0.6594524123497352    7    3  0  0
 2.220446049250313e-15    7    4  0  0
 -7.633644680435825    7    7  0  0
 -7.670658970815786    8    8  0  0
 -7.670658970815786    9    9  0  0
 2.203185550664344e-14   10    1  0  0
 0.2243357689372275   10    2  0  0
 -5.10702591327572e-15   10    3  0  0
 -0.4700859017690002   10    4  0  0
 2.442490654175344e-15   10    7  0  0
 -8.215628545771583   10   10  0  0
 21.6080694459  0  0  0  0
