 &FCI NORB=  10,NELEC=14,MS2=0,
  ORBSYM=1,5,1,5,3,2,1,6,7,5
  ISYM=1,
 &END
 2.300827690276093    1    1    1    1
 1.831490525959985    2    1    2    1
 2.30010076113908    2    2    1    1
 2.299375675720543    2    2    2    2
 -0.1900038142369555    3    1    1    1
 -0.1898332150086576    3    1    2    2
 0.03021489437569374    3    1    3    1
 -0.1961451185766196    3    2    2    1
 0.02998025785204202    3    2    3    2
 0.7750170855225602    3    3    1    1
 0.7751175705683511    3    3    2    2
 0.001494954815278288    3    3    3    1
 0.7353309902441423    3    3    3    3
 -0.186352890628483    4    1    2    1
 0.02608761059619418    4    1    3    2
 0.02903056720237451    4    1    4    1
 -0.1926753628423044    4    2    1    1
 -0.1925962507682246    4    2    2    2
 0.0259251625041729    4    2    3    1
 -0.01751040383866378    4    2    3    3
 0.02919021605687734    4    2    4    2
 0.1788437926198133    4    3    2    1
 -0.008208875806807892    4    3    3    2
 -0.00499353153515598    4    3    4    1
 0.06064400081166223    4    3    4    3
 0.6648147507247422    4    4    1    1
 0.6647350071840149    4    4    2    2
 -0.01229543279380781    4    4    3    1
 0.5092125517917926    4    4    3    3
 -0.005183794231616168    4    4    4    2
 0.5420104726355941    4    4    4    4
 0.009775553757112192    5    1    5    1
 0.009326615625205174    5    2    5    2
 0.01634603525621125    5    3    5    1
 0.1029717738021772    5    3    5    3
 0.01146783362353967    5    4    5    2
 0.0518411167971386    5    4    5    4
 0.6831350532456636    5    5    1    1
 0.6831804311973505    5    5    2    2
 -0.001762878668194346    5    5    3    1
 0.6100117137897325    5    5    3    3
 -0.007560756712047845    5    5    4    2
 0.5080917698531086    5    5    4    4
 0.5832095521079408    5    5    5    5
 0.009775553757112192    6    1    6    1
 0.009326615625205174    6    2    6    2
 0.01634603525621125    6    3    6    1
 0.1029717738021772    6    3    6    3
 0.01146783362353967    6    4    6    2
 0.0518411167971386    6    4    6    4
 0.02362399502552041    6    5    6    5
 0.6831350532456636    6    6    1    1
 0.6831804311973505    6    6    2    2
 -0.001762878668194346    6    6    3    1
 0.6100117137897325    6    6    3    3
 -0.007560756712047845    6    6    4    2
 0.5080917698531086    6    6    4    4
 0.5359615620568996    6    6    5    5
 0.5832095521079408    6    6    6    6
 0.08344321113894274    7    1    1    1
 0.08349740335992045    7    1    2    2
 -0.00675054900708489    7    1    3    1
 0.0246134582455466    7    1    3    3
 -0.01517129647739529    7    1    4    2
 -0.004015362096346614    7    1    4    4
 0.008670979885729282    7    1    5    5
 0.008670979885729282    7    1    6    6
 0.01418469780698516    7    1    7    1
 0.06929795947353813    7    2    2    1
 -0.007152475136705283    7    2    3    2
 -0.0147907018109745    7    2    4    1
 -0.0007039738064057761    7    2    4    3
 0.01330650204132297    7    2    7    2
 0.06255613981603211    7    3    1    1
 0.06263252311670156    7    3    2    2
 0.007084551315136314    7    3    3    1
 0.1086340289584765    7    3    3    3
 -0.004550437643955489    7    3    4    2
 -0.002116851158378955    7    3    4    4
 0.04656019818329026    7    3    5    5
 0.04656019818329026    7    3    6    6
 0.01236331856876881    7    3    7    1
 0.05353194886220335    7    3    7    3
 -0.2511499724288012    7    4    2    1
 0.01329729969471678    7    4    3    2
 -0.002019310674667502    7    4    4    1
 -0.09584381838030195    7    4    4    3
 0.01459652674489045    7    4    7    2
 0.2196859526834081    7    4    7    4
 -0.004828684871204763    7    5    5    1
 -0.01332849923089228    7    5    5    3
 0.02793736104751392    7    5    7    5
 -0.004828684871204763    7    6    6    1
 -0.01332849923089228    7    6    6    3
 0.02793736104751392    7    6    7    6
 0.6818072757791078    7    7    1    1
 0.6817345231474696    7    7    2    2
 -0.008753772624702335    7    7    3    1
 0.5395425414620268    7    7    3    3
 -0.00382298882014582    7    7    4    2
 0.5535919238105275    7    7    4    4
 0.5155318169628375    7    7    5    5
 0.5155318169628375    7    7    6    6
 -0.002681619045016642    7    7    7    1
 0.0154150988373198    7    7    7    3
 0.5820774524630545    7    7    7    7
 0.01127755103045278    8    1    6    2
 0.01357375018366399    8    1    6    4
 0.01365194525739377    8    1    8    1
 0.01181025911647364    8    2    6    1
 0.01853570846741473    8    2    6    3
 -0.006112300235048895    8    2    7    6
 0.01429652295832651    8    2    8    2
 0.01155522531820856    8    3    6    2
 0.04402924278715911    8    3    6    4
 0.01348291970359076    8    3    8    1
 0.04515988252625209    8    3    8    3
 0.01560601639729465    8    4    6    1
 0.07421701692275369    8    4    6    3
 -0.03670418080380613    8    4    7    6
 0.01843363211091602    8    4    8    2
 0.08235274972494483    8    4    8    4
 0.01905821639269691    8    5    8    5
 0.2790090053848475    8    6    2    1
 -0.008495198787000937    8    6    3    2
 -0.002960111101295725    8    6    4    1
 0.1009737261563717    8    6    4    3
 -0.003504469764953172    8    6    7    2
 -0.1568496207926163    8    6    7    4
 0.1904021633320036    8    6    8    6
 -0.006935239993293805    8    7    6    2
 -0.03871678006958026    8    7    6    4
 -0.008416187203020642    8    7    8    1
 -0.0248302367431422    8    7    8    3
 0.03731749345631018    8    7    8    7
 0.722202159837531    8    8    1    1
 0.722226603277608    8    8    2    2
 -0.005858542075510194    8    8    3    1
 0.590465147686362    8    8    3    3
 -0.007679891927815697    8    8    4    2
 0.5329800546211961    8    8    4    4
 0.5377972469077233    8    8    5    5
 0.5832662420692994    8    8    6    6
 0.00532654190024574    8    8    7    1
 0.02890782256331543    8    8    7    3
 0.5372090151609459    8    8    7    7
 0.6005596986390752    8    8    8    8
 0.01127755103045278    9    1    5    2
 0.01357375018366399    9    1    5    4
 0.01365194525739377    9    1    9    1
 0.01181025911647364    9    2    5    1
 0.01853570846741473    9    2    5    3
 -0.006112300235048895    9    2    7    5
 0.01429652295832651    9    2    9    2
 0.01155522531820856    9    3    5    2
 0.04402924278715911    9    3    5    4
 0.01348291970359076    9    3    9    1
 0.04515988252625209    9    3    9    3
 0.01560601639729465    9    4    5    1
 0.07421701692275369    9    4    5    3
 -0.03670418080380613    9    4    7    5
 0.01843363211091602    9    4    9    2
 0.08235274972494483    9    4    9    4
 0.2790090053848475    9    5    2    1
 -0.008495198787000937    9    5    3    2
 -0.002960111101295725    9    5    4    1
 0.1009737261563717    9    5    4    3
 -0.003504469764953172    9    5    7    2
 -0.1568496207926163    9    5    7    4
 0.1522857305466098    9    5    8    6
 0.1904021633320036    9    5    9    5
 0.01905821639269691    9    6    8    5
 0.01905821639269691    9    6    9    6
 -0.006935239993293805    9    7    5    2
 -0.03871678006958026    9    7    5    4
 -0.008416187203020642    9    7    9    1
 -0.0248302367431422    9    7    9    3
 0.03731749345631018    9    7    9    7
 0.02273449758078788    9    8    6    5
 0.02487901179589204    9    8    9    8
 0.722202159837531    9    9    1    1
 0.722226603277608    9    9    2    2
 -0.005858542075510184    9    9    3    1
 0.590465147686362    9    9    3    3
 -0.007679891927815681    9    9    4    2
 0.5329800546211961    9    9    4    4
 0.5832662420692994    9    9    5    5
 0.5377972469077233    9    9    6    6
 0.005326541900245732    9    9    7    1
 0.02890782256331541    9    9    7    3
 0.5372090151609459    9    9    7    7
 0.5508016750472906    9    9    8    8
 0.6005596986390751    9    9    9    9
 -0.1471307410080649   10    1    2    1
 0.02667194511565218   10    1    3    2
 0.01489011811244494   10    1    4    1
 -0.008168401235235894   10    1    4    3
 0.004929276337478404   10    1    7    2
 0.02583864133610367   10    1    7    4
 -0.009698609763907675   10    1    8    6
 -0.009698609763907675   10    1    9    5
 0.03493183545088211   10    1   10    1
 -0.1295023251966138   10    2    1    1
 -0.1292536953356447   10    2    2    2
 0.02708492631890257   10    2    3    1
 0.02137446363036245   10    2    3    3
 0.01440285225855486   10    2    4    2
 -0.01585701350950523   10    2    4    4
 0.006097626867588837   10    2    5    5
 0.006097626867588837   10    2    6    6
 0.005948418464458494   10    2    7    1
 0.01692674714068753   10    2    7    3
 -0.01184840511966475   10    2    7    7
 -0.0002448422245455926   10    2    8    8
 -0.0002448422245455926   10    2    9    9
 0.03597201902885126   10    2   10    2
 0.2233249871919835   10    3    2    1
 -0.004558922022290954   10    3    3    2
 -0.01133846918671326   10    3    4    1
 0.06052925973064938   10    3    4    3
 0.01123262197457523   10    3    7    2
 -0.05340903616193646   10    3    7    4
 0.1016112984674895   10    3    8    6
 0.1016112984674895   10    3    9    5
 0.006537781928806827   10    3   10    1
 0.1063446356765384   10    3   10    3
 0.05114308743760759   10    4    1    1
 0.05122884981216536   10    4    2    2
 0.002701257132789176   10    4    3    1
 0.07475107030275054   10    4    3    3
 -0.007478631830509698   10    4    4    2
 -0.01873395568587946   10    4    4    4
 0.04213303394380433   10    4    5    5
 0.04213303394380433   10    4    6    6
 0.01244772565095525   10    4    7    1
 0.03199694953351281   10    4    7    3
 -0.02623879178683403   10    4    7    7
 0.02935335833117319   10    4    8    8
 0.02935335833117319   10    4    9    9
 0.01385520632968846   10    4   10    2
 0.04883239437309062   10    4   10    4
 0.008423505238962348   10    5    5    2
 0.02354937583260065   10    5    5    4
 0.009627194681707368   10    5    9    1
 0.03366320111674081   10    5    9    3
 -0.003396209310484839   10    5    9    7
 0.03482511991862825   10    5   10    5
 0.008423505238962348   10    6    6    2
 0.02354937583260065   10    6    6    4
 0.009627194681707368   10    6    8    1
 0.03366320111674081   10    6    8    3
 -0.003396209310484839   10    6    8    7
 0.03482511991862825   10    6   10    6
 0.1978658207450264   10    7    2    1
 -0.006546071598014671   10    7    3    2
 -0.001829525618080125   10    7    4    1
 0.05909467551016142   10    7    4    3
 -0.003243811540163664   10    7    7    2
 -0.1254819793820724   10    7    7    4
 0.09581220691271294   10    7    8    6
 0.09581220691271294   10    7    9    5
 -0.009257421955697233   10    7   10    1
 0.05996478325433786   10    7   10    3
 0.09518951315139644   10    7   10    7
 0.01077219070448324   10    8    6    1
 0.05988819179598773   10    8    6    3
 0.001520128137674653   10    8    7    6
 0.01220373688396125   10    8    8    2
 0.03519879178651152   10    8    8    4
 0.04606542170133691   10    8   10    8
 0.01077219070448324   10    9    5    1
 0.05988819179598773   10    9    5    3
 0.001520128137674655   10    9    7    5
 0.01220373688396125   10    9    9    2
 0.03519879178651152   10    9    9    4
 0.0460654217013369   10    9   10    9
 0.8856373955772846   10   10    1    1
 0.8857201918012211   10   10    2    2
 -0.005422148665744142   10   10    3    1
 0.7162016188335109   10   10    3    3
 -0.02045456234581801   10   10    4    2
 0.556132462473911   10   10    4    4
 0.6147390165515499   10   10    5    5
 0.6147390165515499   10   10    6    6
 0.02265012094061837   10   10    7    1
 0.08795031069190182   10   10    7    3
 0.5912067692077896   10   10    7    7
 0.6162995329039663   10   10    8    8
 0.6162995329039663   10   10    9    9
 0.01385400678954392   10   10   10    2
 0.04793958861861834   10   10   10    4
 0.7548845427316888   10   10   10   10
 -27.45987289331176    1    1  0  0
 5.568462357885551e-15    2    1  0  0
 -27.45892894981715    2    2  0  0
 0.4612419539182491    3    1  0  0
 6.501743587961073e-15    3    2  0  0
 -9.404903460895536    3    3  0  0
 -8.515757543570146e-15    4    1  0  0
 0.4990110104069264    4    2  0  0
 1.332267629550188e-15    4    3  0  0
 -7.643843498316898    4    4  0  0
 -7.980685476352675    5    5  0  0
 -7.980685476352675    6    6  0  0
 -0.2589306802834531    7    1  0  0
 -2.331468351712829e-15    7    2  0  0
 -0.6928373850633357    7    3  0  0
 -7.732199913336734    7    7  0  0
 -7.783089929636674    8    8  0  0
 -7.783089929636674    9    9  0  0
 -2.077765043351221e-14   10    1  0  0
 0.230964652333087   10    2  0  0
 1.443289932012704e-15   10    3  0  0
 -0.4401276092366226   10    4  0  0
 2.886579864025407e-15   10    7  0  0
 -8.288608544525509   10   10  0  0
 22.94662242042478  0  0  0  0
